+ 0.1 1 2 cbr 500 ------- 0 1.0 4.0 0 0
- 0.1 1 2 cbr 500 ------- 0 1.0 4.0 0 0
+ 0.105 1 2 cbr 500 ------- 0 1.0 4.0 1 1
- 0.105 1 2 cbr 500 ------- 0 1.0 4.0 1 1
+ 0.11 1 2 cbr 500 ------- 0 1.0 4.0 2 2
- 0.11 1 2 cbr 500 ------- 0 1.0 4.0 2 2
r 0.114 1 2 cbr 500 ------- 0 1.0 4.0 0 0
+ 0.114 2 3 cbr 500 ------- 0 1.0 4.0 0 0
- 0.114 2 3 cbr 500 ------- 0 1.0 4.0 0 0
+ 0.115 1 2 cbr 500 ------- 0 1.0 4.0 3 3
- 0.115 1 2 cbr 500 ------- 0 1.0 4.0 3 3
r 0.119 1 2 cbr 500 ------- 0 1.0 4.0 1 1
+ 0.119 2 3 cbr 500 ------- 0 1.0 4.0 1 1
- 0.119 2 3 cbr 500 ------- 0 1.0 4.0 1 1
+ 0.12 1 2 cbr 500 ------- 0 1.0 4.0 4 4
- 0.12 1 2 cbr 500 ------- 0 1.0 4.0 4 4
r 0.124 1 2 cbr 500 ------- 0 1.0 4.0 2 2
+ 0.124 2 3 cbr 500 ------- 0 1.0 4.0 2 2
- 0.124 2 3 cbr 500 ------- 0 1.0 4.0 2 2
+ 0.125 1 2 cbr 500 ------- 0 1.0 4.0 5 5
- 0.125 1 2 cbr 500 ------- 0 1.0 4.0 5 5
r 0.125333 2 3 cbr 500 ------- 0 1.0 4.0 0 0
+ 0.125333 3 4 cbr 500 ------- 0 1.0 4.0 0 0
- 0.125333 3 4 cbr 500 ------- 0 1.0 4.0 0 0
r 0.129 1 2 cbr 500 ------- 0 1.0 4.0 3 3
+ 0.129 2 3 cbr 500 ------- 0 1.0 4.0 3 3
- 0.129 2 3 cbr 500 ------- 0 1.0 4.0 3 3
+ 0.13 1 2 cbr 500 ------- 0 1.0 4.0 6 6
- 0.13 1 2 cbr 500 ------- 0 1.0 4.0 6 6
r 0.130333 2 3 cbr 500 ------- 0 1.0 4.0 1 1
+ 0.130333 3 4 cbr 500 ------- 0 1.0 4.0 1 1
- 0.130333 3 4 cbr 500 ------- 0 1.0 4.0 1 1
r 0.134 1 2 cbr 500 ------- 0 1.0 4.0 4 4
+ 0.134 2 3 cbr 500 ------- 0 1.0 4.0 4 4
- 0.134 2 3 cbr 500 ------- 0 1.0 4.0 4 4
+ 0.135 1 2 cbr 500 ------- 0 1.0 4.0 7 7
- 0.135 1 2 cbr 500 ------- 0 1.0 4.0 7 7
r 0.135333 2 3 cbr 500 ------- 0 1.0 4.0 2 2
+ 0.135333 3 4 cbr 500 ------- 0 1.0 4.0 2 2
- 0.135333 3 4 cbr 500 ------- 0 1.0 4.0 2 2
r 0.137333 3 4 cbr 500 ------- 0 1.0 4.0 0 0
r 0.139 1 2 cbr 500 ------- 0 1.0 4.0 5 5
+ 0.139 2 3 cbr 500 ------- 0 1.0 4.0 5 5
- 0.139 2 3 cbr 500 ------- 0 1.0 4.0 5 5
+ 0.14 1 2 cbr 500 ------- 0 1.0 4.0 8 8
- 0.14 1 2 cbr 500 ------- 0 1.0 4.0 8 8
r 0.140333 2 3 cbr 500 ------- 0 1.0 4.0 3 3
+ 0.140333 3 4 cbr 500 ------- 0 1.0 4.0 3 3
- 0.140333 3 4 cbr 500 ------- 0 1.0 4.0 3 3
r 0.142333 3 4 cbr 500 ------- 0 1.0 4.0 1 1
r 0.144 1 2 cbr 500 ------- 0 1.0 4.0 6 6
+ 0.144 2 3 cbr 500 ------- 0 1.0 4.0 6 6
- 0.144 2 3 cbr 500 ------- 0 1.0 4.0 6 6
+ 0.145 1 2 cbr 500 ------- 0 1.0 4.0 9 9
- 0.145 1 2 cbr 500 ------- 0 1.0 4.0 9 9
r 0.145333 2 3 cbr 500 ------- 0 1.0 4.0 4 4
+ 0.145333 3 4 cbr 500 ------- 0 1.0 4.0 4 4
- 0.145333 3 4 cbr 500 ------- 0 1.0 4.0 4 4
r 0.147333 3 4 cbr 500 ------- 0 1.0 4.0 2 2
r 0.149 1 2 cbr 500 ------- 0 1.0 4.0 7 7
+ 0.149 2 3 cbr 500 ------- 0 1.0 4.0 7 7
- 0.149 2 3 cbr 500 ------- 0 1.0 4.0 7 7
+ 0.15 1 2 cbr 500 ------- 0 1.0 4.0 10 10
- 0.15 1 2 cbr 500 ------- 0 1.0 4.0 10 10
r 0.150333 2 3 cbr 500 ------- 0 1.0 4.0 5 5
+ 0.150333 3 4 cbr 500 ------- 0 1.0 4.0 5 5
- 0.150333 3 4 cbr 500 ------- 0 1.0 4.0 5 5
r 0.152333 3 4 cbr 500 ------- 0 1.0 4.0 3 3
r 0.154 1 2 cbr 500 ------- 0 1.0 4.0 8 8
+ 0.154 2 3 cbr 500 ------- 0 1.0 4.0 8 8
- 0.154 2 3 cbr 500 ------- 0 1.0 4.0 8 8
+ 0.155 1 2 cbr 500 ------- 0 1.0 4.0 11 11
- 0.155 1 2 cbr 500 ------- 0 1.0 4.0 11 11
r 0.155333 2 3 cbr 500 ------- 0 1.0 4.0 6 6
+ 0.155333 3 4 cbr 500 ------- 0 1.0 4.0 6 6
- 0.155333 3 4 cbr 500 ------- 0 1.0 4.0 6 6
r 0.157333 3 4 cbr 500 ------- 0 1.0 4.0 4 4
r 0.159 1 2 cbr 500 ------- 0 1.0 4.0 9 9
+ 0.159 2 3 cbr 500 ------- 0 1.0 4.0 9 9
- 0.159 2 3 cbr 500 ------- 0 1.0 4.0 9 9
+ 0.16 1 2 cbr 500 ------- 0 1.0 4.0 12 12
- 0.16 1 2 cbr 500 ------- 0 1.0 4.0 12 12
r 0.160333 2 3 cbr 500 ------- 0 1.0 4.0 7 7
+ 0.160333 3 4 cbr 500 ------- 0 1.0 4.0 7 7
- 0.160333 3 4 cbr 500 ------- 0 1.0 4.0 7 7
r 0.162333 3 4 cbr 500 ------- 0 1.0 4.0 5 5
r 0.164 1 2 cbr 500 ------- 0 1.0 4.0 10 10
+ 0.164 2 3 cbr 500 ------- 0 1.0 4.0 10 10
- 0.164 2 3 cbr 500 ------- 0 1.0 4.0 10 10
+ 0.165 1 2 cbr 500 ------- 0 1.0 4.0 13 13
- 0.165 1 2 cbr 500 ------- 0 1.0 4.0 13 13
r 0.165333 2 3 cbr 500 ------- 0 1.0 4.0 8 8
+ 0.165333 3 4 cbr 500 ------- 0 1.0 4.0 8 8
- 0.165333 3 4 cbr 500 ------- 0 1.0 4.0 8 8
r 0.167333 3 4 cbr 500 ------- 0 1.0 4.0 6 6
r 0.169 1 2 cbr 500 ------- 0 1.0 4.0 11 11
+ 0.169 2 3 cbr 500 ------- 0 1.0 4.0 11 11
- 0.169 2 3 cbr 500 ------- 0 1.0 4.0 11 11
+ 0.17 1 2 cbr 500 ------- 0 1.0 4.0 14 14
- 0.17 1 2 cbr 500 ------- 0 1.0 4.0 14 14
r 0.170333 2 3 cbr 500 ------- 0 1.0 4.0 9 9
+ 0.170333 3 4 cbr 500 ------- 0 1.0 4.0 9 9
- 0.170333 3 4 cbr 500 ------- 0 1.0 4.0 9 9
r 0.172333 3 4 cbr 500 ------- 0 1.0 4.0 7 7
r 0.174 1 2 cbr 500 ------- 0 1.0 4.0 12 12
+ 0.174 2 3 cbr 500 ------- 0 1.0 4.0 12 12
- 0.174 2 3 cbr 500 ------- 0 1.0 4.0 12 12
+ 0.175 1 2 cbr 500 ------- 0 1.0 4.0 15 15
- 0.175 1 2 cbr 500 ------- 0 1.0 4.0 15 15
r 0.175333 2 3 cbr 500 ------- 0 1.0 4.0 10 10
+ 0.175333 3 4 cbr 500 ------- 0 1.0 4.0 10 10
- 0.175333 3 4 cbr 500 ------- 0 1.0 4.0 10 10
r 0.177333 3 4 cbr 500 ------- 0 1.0 4.0 8 8
r 0.179 1 2 cbr 500 ------- 0 1.0 4.0 13 13
+ 0.179 2 3 cbr 500 ------- 0 1.0 4.0 13 13
- 0.179 2 3 cbr 500 ------- 0 1.0 4.0 13 13
+ 0.18 1 2 cbr 500 ------- 0 1.0 4.0 16 16
- 0.18 1 2 cbr 500 ------- 0 1.0 4.0 16 16
r 0.180333 2 3 cbr 500 ------- 0 1.0 4.0 11 11
+ 0.180333 3 4 cbr 500 ------- 0 1.0 4.0 11 11
- 0.180333 3 4 cbr 500 ------- 0 1.0 4.0 11 11
r 0.182333 3 4 cbr 500 ------- 0 1.0 4.0 9 9
r 0.184 1 2 cbr 500 ------- 0 1.0 4.0 14 14
+ 0.184 2 3 cbr 500 ------- 0 1.0 4.0 14 14
- 0.184 2 3 cbr 500 ------- 0 1.0 4.0 14 14
+ 0.185 1 2 cbr 500 ------- 0 1.0 4.0 17 17
- 0.185 1 2 cbr 500 ------- 0 1.0 4.0 17 17
r 0.185333 2 3 cbr 500 ------- 0 1.0 4.0 12 12
+ 0.185333 3 4 cbr 500 ------- 0 1.0 4.0 12 12
- 0.185333 3 4 cbr 500 ------- 0 1.0 4.0 12 12
r 0.187333 3 4 cbr 500 ------- 0 1.0 4.0 10 10
r 0.189 1 2 cbr 500 ------- 0 1.0 4.0 15 15
+ 0.189 2 3 cbr 500 ------- 0 1.0 4.0 15 15
- 0.189 2 3 cbr 500 ------- 0 1.0 4.0 15 15
+ 0.19 1 2 cbr 500 ------- 0 1.0 4.0 18 18
- 0.19 1 2 cbr 500 ------- 0 1.0 4.0 18 18
r 0.190333 2 3 cbr 500 ------- 0 1.0 4.0 13 13
+ 0.190333 3 4 cbr 500 ------- 0 1.0 4.0 13 13
- 0.190333 3 4 cbr 500 ------- 0 1.0 4.0 13 13
r 0.192333 3 4 cbr 500 ------- 0 1.0 4.0 11 11
r 0.194 1 2 cbr 500 ------- 0 1.0 4.0 16 16
+ 0.194 2 3 cbr 500 ------- 0 1.0 4.0 16 16
- 0.194 2 3 cbr 500 ------- 0 1.0 4.0 16 16
+ 0.195 1 2 cbr 500 ------- 0 1.0 4.0 19 19
- 0.195 1 2 cbr 500 ------- 0 1.0 4.0 19 19
r 0.195333 2 3 cbr 500 ------- 0 1.0 4.0 14 14
+ 0.195333 3 4 cbr 500 ------- 0 1.0 4.0 14 14
- 0.195333 3 4 cbr 500 ------- 0 1.0 4.0 14 14
r 0.197333 3 4 cbr 500 ------- 0 1.0 4.0 12 12
r 0.199 1 2 cbr 500 ------- 0 1.0 4.0 17 17
+ 0.199 2 3 cbr 500 ------- 0 1.0 4.0 17 17
- 0.199 2 3 cbr 500 ------- 0 1.0 4.0 17 17
+ 0.2 1 2 cbr 500 ------- 0 1.0 4.0 20 20
- 0.2 1 2 cbr 500 ------- 0 1.0 4.0 20 20
r 0.200333 2 3 cbr 500 ------- 0 1.0 4.0 15 15
+ 0.200333 3 4 cbr 500 ------- 0 1.0 4.0 15 15
- 0.200333 3 4 cbr 500 ------- 0 1.0 4.0 15 15
r 0.202333 3 4 cbr 500 ------- 0 1.0 4.0 13 13
r 0.204 1 2 cbr 500 ------- 0 1.0 4.0 18 18
+ 0.204 2 3 cbr 500 ------- 0 1.0 4.0 18 18
- 0.204 2 3 cbr 500 ------- 0 1.0 4.0 18 18
+ 0.205 1 2 cbr 500 ------- 0 1.0 4.0 21 21
- 0.205 1 2 cbr 500 ------- 0 1.0 4.0 21 21
r 0.205333 2 3 cbr 500 ------- 0 1.0 4.0 16 16
+ 0.205333 3 4 cbr 500 ------- 0 1.0 4.0 16 16
- 0.205333 3 4 cbr 500 ------- 0 1.0 4.0 16 16
r 0.207333 3 4 cbr 500 ------- 0 1.0 4.0 14 14
r 0.209 1 2 cbr 500 ------- 0 1.0 4.0 19 19
+ 0.209 2 3 cbr 500 ------- 0 1.0 4.0 19 19
- 0.209 2 3 cbr 500 ------- 0 1.0 4.0 19 19
+ 0.21 1 2 cbr 500 ------- 0 1.0 4.0 22 22
- 0.21 1 2 cbr 500 ------- 0 1.0 4.0 22 22
r 0.210333 2 3 cbr 500 ------- 0 1.0 4.0 17 17
+ 0.210333 3 4 cbr 500 ------- 0 1.0 4.0 17 17
- 0.210333 3 4 cbr 500 ------- 0 1.0 4.0 17 17
r 0.212333 3 4 cbr 500 ------- 0 1.0 4.0 15 15
r 0.214 1 2 cbr 500 ------- 0 1.0 4.0 20 20
+ 0.214 2 3 cbr 500 ------- 0 1.0 4.0 20 20
- 0.214 2 3 cbr 500 ------- 0 1.0 4.0 20 20
+ 0.215 1 2 cbr 500 ------- 0 1.0 4.0 23 23
- 0.215 1 2 cbr 500 ------- 0 1.0 4.0 23 23
r 0.215333 2 3 cbr 500 ------- 0 1.0 4.0 18 18
+ 0.215333 3 4 cbr 500 ------- 0 1.0 4.0 18 18
- 0.215333 3 4 cbr 500 ------- 0 1.0 4.0 18 18
r 0.217333 3 4 cbr 500 ------- 0 1.0 4.0 16 16
r 0.219 1 2 cbr 500 ------- 0 1.0 4.0 21 21
+ 0.219 2 3 cbr 500 ------- 0 1.0 4.0 21 21
- 0.219 2 3 cbr 500 ------- 0 1.0 4.0 21 21
+ 0.22 1 2 cbr 500 ------- 0 1.0 4.0 24 24
- 0.22 1 2 cbr 500 ------- 0 1.0 4.0 24 24
r 0.220333 2 3 cbr 500 ------- 0 1.0 4.0 19 19
+ 0.220333 3 4 cbr 500 ------- 0 1.0 4.0 19 19
- 0.220333 3 4 cbr 500 ------- 0 1.0 4.0 19 19
r 0.222333 3 4 cbr 500 ------- 0 1.0 4.0 17 17
r 0.224 1 2 cbr 500 ------- 0 1.0 4.0 22 22
+ 0.224 2 3 cbr 500 ------- 0 1.0 4.0 22 22
- 0.224 2 3 cbr 500 ------- 0 1.0 4.0 22 22
+ 0.225 1 2 cbr 500 ------- 0 1.0 4.0 25 25
- 0.225 1 2 cbr 500 ------- 0 1.0 4.0 25 25
r 0.225333 2 3 cbr 500 ------- 0 1.0 4.0 20 20
+ 0.225333 3 4 cbr 500 ------- 0 1.0 4.0 20 20
- 0.225333 3 4 cbr 500 ------- 0 1.0 4.0 20 20
r 0.227333 3 4 cbr 500 ------- 0 1.0 4.0 18 18
r 0.229 1 2 cbr 500 ------- 0 1.0 4.0 23 23
+ 0.229 2 3 cbr 500 ------- 0 1.0 4.0 23 23
- 0.229 2 3 cbr 500 ------- 0 1.0 4.0 23 23
+ 0.23 1 2 cbr 500 ------- 0 1.0 4.0 26 26
- 0.23 1 2 cbr 500 ------- 0 1.0 4.0 26 26
r 0.230333 2 3 cbr 500 ------- 0 1.0 4.0 21 21
+ 0.230333 3 4 cbr 500 ------- 0 1.0 4.0 21 21
- 0.230333 3 4 cbr 500 ------- 0 1.0 4.0 21 21
r 0.232333 3 4 cbr 500 ------- 0 1.0 4.0 19 19
r 0.234 1 2 cbr 500 ------- 0 1.0 4.0 24 24
+ 0.234 2 3 cbr 500 ------- 0 1.0 4.0 24 24
- 0.234 2 3 cbr 500 ------- 0 1.0 4.0 24 24
+ 0.235 1 2 cbr 500 ------- 0 1.0 4.0 27 27
- 0.235 1 2 cbr 500 ------- 0 1.0 4.0 27 27
r 0.235333 2 3 cbr 500 ------- 0 1.0 4.0 22 22
+ 0.235333 3 4 cbr 500 ------- 0 1.0 4.0 22 22
- 0.235333 3 4 cbr 500 ------- 0 1.0 4.0 22 22
r 0.237333 3 4 cbr 500 ------- 0 1.0 4.0 20 20
r 0.239 1 2 cbr 500 ------- 0 1.0 4.0 25 25
+ 0.239 2 3 cbr 500 ------- 0 1.0 4.0 25 25
- 0.239 2 3 cbr 500 ------- 0 1.0 4.0 25 25
+ 0.24 1 2 cbr 500 ------- 0 1.0 4.0 28 28
- 0.24 1 2 cbr 500 ------- 0 1.0 4.0 28 28
r 0.240333 2 3 cbr 500 ------- 0 1.0 4.0 23 23
+ 0.240333 3 4 cbr 500 ------- 0 1.0 4.0 23 23
- 0.240333 3 4 cbr 500 ------- 0 1.0 4.0 23 23
r 0.242333 3 4 cbr 500 ------- 0 1.0 4.0 21 21
r 0.244 1 2 cbr 500 ------- 0 1.0 4.0 26 26
+ 0.244 2 3 cbr 500 ------- 0 1.0 4.0 26 26
- 0.244 2 3 cbr 500 ------- 0 1.0 4.0 26 26
+ 0.245 1 2 cbr 500 ------- 0 1.0 4.0 29 29
- 0.245 1 2 cbr 500 ------- 0 1.0 4.0 29 29
r 0.245333 2 3 cbr 500 ------- 0 1.0 4.0 24 24
+ 0.245333 3 4 cbr 500 ------- 0 1.0 4.0 24 24
- 0.245333 3 4 cbr 500 ------- 0 1.0 4.0 24 24
r 0.247333 3 4 cbr 500 ------- 0 1.0 4.0 22 22
r 0.249 1 2 cbr 500 ------- 0 1.0 4.0 27 27
+ 0.249 2 3 cbr 500 ------- 0 1.0 4.0 27 27
- 0.249 2 3 cbr 500 ------- 0 1.0 4.0 27 27
+ 0.25 1 2 cbr 500 ------- 0 1.0 4.0 30 30
- 0.25 1 2 cbr 500 ------- 0 1.0 4.0 30 30
r 0.250333 2 3 cbr 500 ------- 0 1.0 4.0 25 25
+ 0.250333 3 4 cbr 500 ------- 0 1.0 4.0 25 25
- 0.250333 3 4 cbr 500 ------- 0 1.0 4.0 25 25
r 0.252333 3 4 cbr 500 ------- 0 1.0 4.0 23 23
r 0.254 1 2 cbr 500 ------- 0 1.0 4.0 28 28
+ 0.254 2 3 cbr 500 ------- 0 1.0 4.0 28 28
- 0.254 2 3 cbr 500 ------- 0 1.0 4.0 28 28
+ 0.255 1 2 cbr 500 ------- 0 1.0 4.0 31 31
- 0.255 1 2 cbr 500 ------- 0 1.0 4.0 31 31
r 0.255333 2 3 cbr 500 ------- 0 1.0 4.0 26 26
+ 0.255333 3 4 cbr 500 ------- 0 1.0 4.0 26 26
- 0.255333 3 4 cbr 500 ------- 0 1.0 4.0 26 26
r 0.257333 3 4 cbr 500 ------- 0 1.0 4.0 24 24
r 0.259 1 2 cbr 500 ------- 0 1.0 4.0 29 29
+ 0.259 2 3 cbr 500 ------- 0 1.0 4.0 29 29
- 0.259 2 3 cbr 500 ------- 0 1.0 4.0 29 29
+ 0.26 1 2 cbr 500 ------- 0 1.0 4.0 32 32
- 0.26 1 2 cbr 500 ------- 0 1.0 4.0 32 32
r 0.260333 2 3 cbr 500 ------- 0 1.0 4.0 27 27
+ 0.260333 3 4 cbr 500 ------- 0 1.0 4.0 27 27
- 0.260333 3 4 cbr 500 ------- 0 1.0 4.0 27 27
r 0.262333 3 4 cbr 500 ------- 0 1.0 4.0 25 25
r 0.264 1 2 cbr 500 ------- 0 1.0 4.0 30 30
+ 0.264 2 3 cbr 500 ------- 0 1.0 4.0 30 30
- 0.264 2 3 cbr 500 ------- 0 1.0 4.0 30 30
+ 0.265 1 2 cbr 500 ------- 0 1.0 4.0 33 33
- 0.265 1 2 cbr 500 ------- 0 1.0 4.0 33 33
r 0.265333 2 3 cbr 500 ------- 0 1.0 4.0 28 28
+ 0.265333 3 4 cbr 500 ------- 0 1.0 4.0 28 28
- 0.265333 3 4 cbr 500 ------- 0 1.0 4.0 28 28
r 0.267333 3 4 cbr 500 ------- 0 1.0 4.0 26 26
r 0.269 1 2 cbr 500 ------- 0 1.0 4.0 31 31
+ 0.269 2 3 cbr 500 ------- 0 1.0 4.0 31 31
- 0.269 2 3 cbr 500 ------- 0 1.0 4.0 31 31
+ 0.27 1 2 cbr 500 ------- 0 1.0 4.0 34 34
- 0.27 1 2 cbr 500 ------- 0 1.0 4.0 34 34
r 0.270333 2 3 cbr 500 ------- 0 1.0 4.0 29 29
+ 0.270333 3 4 cbr 500 ------- 0 1.0 4.0 29 29
- 0.270333 3 4 cbr 500 ------- 0 1.0 4.0 29 29
r 0.272333 3 4 cbr 500 ------- 0 1.0 4.0 27 27
r 0.274 1 2 cbr 500 ------- 0 1.0 4.0 32 32
+ 0.274 2 3 cbr 500 ------- 0 1.0 4.0 32 32
- 0.274 2 3 cbr 500 ------- 0 1.0 4.0 32 32
+ 0.275 1 2 cbr 500 ------- 0 1.0 4.0 35 35
- 0.275 1 2 cbr 500 ------- 0 1.0 4.0 35 35
r 0.275333 2 3 cbr 500 ------- 0 1.0 4.0 30 30
+ 0.275333 3 4 cbr 500 ------- 0 1.0 4.0 30 30
- 0.275333 3 4 cbr 500 ------- 0 1.0 4.0 30 30
r 0.277333 3 4 cbr 500 ------- 0 1.0 4.0 28 28
r 0.279 1 2 cbr 500 ------- 0 1.0 4.0 33 33
+ 0.279 2 3 cbr 500 ------- 0 1.0 4.0 33 33
- 0.279 2 3 cbr 500 ------- 0 1.0 4.0 33 33
+ 0.28 1 2 cbr 500 ------- 0 1.0 4.0 36 36
- 0.28 1 2 cbr 500 ------- 0 1.0 4.0 36 36
r 0.280333 2 3 cbr 500 ------- 0 1.0 4.0 31 31
+ 0.280333 3 4 cbr 500 ------- 0 1.0 4.0 31 31
- 0.280333 3 4 cbr 500 ------- 0 1.0 4.0 31 31
r 0.282333 3 4 cbr 500 ------- 0 1.0 4.0 29 29
r 0.284 1 2 cbr 500 ------- 0 1.0 4.0 34 34
+ 0.284 2 3 cbr 500 ------- 0 1.0 4.0 34 34
- 0.284 2 3 cbr 500 ------- 0 1.0 4.0 34 34
+ 0.285 1 2 cbr 500 ------- 0 1.0 4.0 37 37
- 0.285 1 2 cbr 500 ------- 0 1.0 4.0 37 37
r 0.285333 2 3 cbr 500 ------- 0 1.0 4.0 32 32
+ 0.285333 3 4 cbr 500 ------- 0 1.0 4.0 32 32
- 0.285333 3 4 cbr 500 ------- 0 1.0 4.0 32 32
r 0.287333 3 4 cbr 500 ------- 0 1.0 4.0 30 30
r 0.289 1 2 cbr 500 ------- 0 1.0 4.0 35 35
+ 0.289 2 3 cbr 500 ------- 0 1.0 4.0 35 35
- 0.289 2 3 cbr 500 ------- 0 1.0 4.0 35 35
+ 0.29 1 2 cbr 500 ------- 0 1.0 4.0 38 38
- 0.29 1 2 cbr 500 ------- 0 1.0 4.0 38 38
r 0.290333 2 3 cbr 500 ------- 0 1.0 4.0 33 33
+ 0.290333 3 4 cbr 500 ------- 0 1.0 4.0 33 33
- 0.290333 3 4 cbr 500 ------- 0 1.0 4.0 33 33
r 0.292333 3 4 cbr 500 ------- 0 1.0 4.0 31 31
r 0.294 1 2 cbr 500 ------- 0 1.0 4.0 36 36
+ 0.294 2 3 cbr 500 ------- 0 1.0 4.0 36 36
- 0.294 2 3 cbr 500 ------- 0 1.0 4.0 36 36
+ 0.295 1 2 cbr 500 ------- 0 1.0 4.0 39 39
- 0.295 1 2 cbr 500 ------- 0 1.0 4.0 39 39
r 0.295333 2 3 cbr 500 ------- 0 1.0 4.0 34 34
+ 0.295333 3 4 cbr 500 ------- 0 1.0 4.0 34 34
- 0.295333 3 4 cbr 500 ------- 0 1.0 4.0 34 34
r 0.297333 3 4 cbr 500 ------- 0 1.0 4.0 32 32
r 0.299 1 2 cbr 500 ------- 0 1.0 4.0 37 37
+ 0.299 2 3 cbr 500 ------- 0 1.0 4.0 37 37
- 0.299 2 3 cbr 500 ------- 0 1.0 4.0 37 37
+ 0.3 1 2 cbr 500 ------- 0 1.0 4.0 40 40
- 0.3 1 2 cbr 500 ------- 0 1.0 4.0 40 40
r 0.300333 2 3 cbr 500 ------- 0 1.0 4.0 35 35
+ 0.300333 3 4 cbr 500 ------- 0 1.0 4.0 35 35
- 0.300333 3 4 cbr 500 ------- 0 1.0 4.0 35 35
r 0.302333 3 4 cbr 500 ------- 0 1.0 4.0 33 33
r 0.304 1 2 cbr 500 ------- 0 1.0 4.0 38 38
+ 0.304 2 3 cbr 500 ------- 0 1.0 4.0 38 38
- 0.304 2 3 cbr 500 ------- 0 1.0 4.0 38 38
+ 0.305 1 2 cbr 500 ------- 0 1.0 4.0 41 41
- 0.305 1 2 cbr 500 ------- 0 1.0 4.0 41 41
r 0.305333 2 3 cbr 500 ------- 0 1.0 4.0 36 36
+ 0.305333 3 4 cbr 500 ------- 0 1.0 4.0 36 36
- 0.305333 3 4 cbr 500 ------- 0 1.0 4.0 36 36
r 0.307333 3 4 cbr 500 ------- 0 1.0 4.0 34 34
r 0.309 1 2 cbr 500 ------- 0 1.0 4.0 39 39
+ 0.309 2 3 cbr 500 ------- 0 1.0 4.0 39 39
- 0.309 2 3 cbr 500 ------- 0 1.0 4.0 39 39
+ 0.31 1 2 cbr 500 ------- 0 1.0 4.0 42 42
- 0.31 1 2 cbr 500 ------- 0 1.0 4.0 42 42
r 0.310333 2 3 cbr 500 ------- 0 1.0 4.0 37 37
+ 0.310333 3 4 cbr 500 ------- 0 1.0 4.0 37 37
- 0.310333 3 4 cbr 500 ------- 0 1.0 4.0 37 37
r 0.312333 3 4 cbr 500 ------- 0 1.0 4.0 35 35
r 0.314 1 2 cbr 500 ------- 0 1.0 4.0 40 40
+ 0.314 2 3 cbr 500 ------- 0 1.0 4.0 40 40
- 0.314 2 3 cbr 500 ------- 0 1.0 4.0 40 40
+ 0.315 1 2 cbr 500 ------- 0 1.0 4.0 43 43
- 0.315 1 2 cbr 500 ------- 0 1.0 4.0 43 43
r 0.315333 2 3 cbr 500 ------- 0 1.0 4.0 38 38
+ 0.315333 3 4 cbr 500 ------- 0 1.0 4.0 38 38
- 0.315333 3 4 cbr 500 ------- 0 1.0 4.0 38 38
r 0.317333 3 4 cbr 500 ------- 0 1.0 4.0 36 36
r 0.319 1 2 cbr 500 ------- 0 1.0 4.0 41 41
+ 0.319 2 3 cbr 500 ------- 0 1.0 4.0 41 41
- 0.319 2 3 cbr 500 ------- 0 1.0 4.0 41 41
+ 0.32 1 2 cbr 500 ------- 0 1.0 4.0 44 44
- 0.32 1 2 cbr 500 ------- 0 1.0 4.0 44 44
r 0.320333 2 3 cbr 500 ------- 0 1.0 4.0 39 39
+ 0.320333 3 4 cbr 500 ------- 0 1.0 4.0 39 39
- 0.320333 3 4 cbr 500 ------- 0 1.0 4.0 39 39
r 0.322333 3 4 cbr 500 ------- 0 1.0 4.0 37 37
r 0.324 1 2 cbr 500 ------- 0 1.0 4.0 42 42
+ 0.324 2 3 cbr 500 ------- 0 1.0 4.0 42 42
- 0.324 2 3 cbr 500 ------- 0 1.0 4.0 42 42
+ 0.325 1 2 cbr 500 ------- 0 1.0 4.0 45 45
- 0.325 1 2 cbr 500 ------- 0 1.0 4.0 45 45
r 0.325333 2 3 cbr 500 ------- 0 1.0 4.0 40 40
+ 0.325333 3 4 cbr 500 ------- 0 1.0 4.0 40 40
- 0.325333 3 4 cbr 500 ------- 0 1.0 4.0 40 40
r 0.327333 3 4 cbr 500 ------- 0 1.0 4.0 38 38
r 0.329 1 2 cbr 500 ------- 0 1.0 4.0 43 43
+ 0.329 2 3 cbr 500 ------- 0 1.0 4.0 43 43
- 0.329 2 3 cbr 500 ------- 0 1.0 4.0 43 43
+ 0.33 1 2 cbr 500 ------- 0 1.0 4.0 46 46
- 0.33 1 2 cbr 500 ------- 0 1.0 4.0 46 46
r 0.330333 2 3 cbr 500 ------- 0 1.0 4.0 41 41
+ 0.330333 3 4 cbr 500 ------- 0 1.0 4.0 41 41
- 0.330333 3 4 cbr 500 ------- 0 1.0 4.0 41 41
r 0.332333 3 4 cbr 500 ------- 0 1.0 4.0 39 39
r 0.334 1 2 cbr 500 ------- 0 1.0 4.0 44 44
+ 0.334 2 3 cbr 500 ------- 0 1.0 4.0 44 44
- 0.334 2 3 cbr 500 ------- 0 1.0 4.0 44 44
+ 0.335 1 2 cbr 500 ------- 0 1.0 4.0 47 47
- 0.335 1 2 cbr 500 ------- 0 1.0 4.0 47 47
r 0.335333 2 3 cbr 500 ------- 0 1.0 4.0 42 42
+ 0.335333 3 4 cbr 500 ------- 0 1.0 4.0 42 42
- 0.335333 3 4 cbr 500 ------- 0 1.0 4.0 42 42
r 0.337333 3 4 cbr 500 ------- 0 1.0 4.0 40 40
r 0.339 1 2 cbr 500 ------- 0 1.0 4.0 45 45
+ 0.339 2 3 cbr 500 ------- 0 1.0 4.0 45 45
- 0.339 2 3 cbr 500 ------- 0 1.0 4.0 45 45
+ 0.34 1 2 cbr 500 ------- 0 1.0 4.0 48 48
- 0.34 1 2 cbr 500 ------- 0 1.0 4.0 48 48
r 0.340333 2 3 cbr 500 ------- 0 1.0 4.0 43 43
+ 0.340333 3 4 cbr 500 ------- 0 1.0 4.0 43 43
- 0.340333 3 4 cbr 500 ------- 0 1.0 4.0 43 43
r 0.342333 3 4 cbr 500 ------- 0 1.0 4.0 41 41
r 0.344 1 2 cbr 500 ------- 0 1.0 4.0 46 46
+ 0.344 2 3 cbr 500 ------- 0 1.0 4.0 46 46
- 0.344 2 3 cbr 500 ------- 0 1.0 4.0 46 46
+ 0.345 1 2 cbr 500 ------- 0 1.0 4.0 49 49
- 0.345 1 2 cbr 500 ------- 0 1.0 4.0 49 49
r 0.345333 2 3 cbr 500 ------- 0 1.0 4.0 44 44
+ 0.345333 3 4 cbr 500 ------- 0 1.0 4.0 44 44
- 0.345333 3 4 cbr 500 ------- 0 1.0 4.0 44 44
r 0.347333 3 4 cbr 500 ------- 0 1.0 4.0 42 42
r 0.349 1 2 cbr 500 ------- 0 1.0 4.0 47 47
+ 0.349 2 3 cbr 500 ------- 0 1.0 4.0 47 47
- 0.349 2 3 cbr 500 ------- 0 1.0 4.0 47 47
+ 0.35 1 2 cbr 500 ------- 0 1.0 4.0 50 50
- 0.35 1 2 cbr 500 ------- 0 1.0 4.0 50 50
r 0.350333 2 3 cbr 500 ------- 0 1.0 4.0 45 45
+ 0.350333 3 4 cbr 500 ------- 0 1.0 4.0 45 45
- 0.350333 3 4 cbr 500 ------- 0 1.0 4.0 45 45
r 0.352333 3 4 cbr 500 ------- 0 1.0 4.0 43 43
r 0.354 1 2 cbr 500 ------- 0 1.0 4.0 48 48
+ 0.354 2 3 cbr 500 ------- 0 1.0 4.0 48 48
- 0.354 2 3 cbr 500 ------- 0 1.0 4.0 48 48
+ 0.355 1 2 cbr 500 ------- 0 1.0 4.0 51 51
- 0.355 1 2 cbr 500 ------- 0 1.0 4.0 51 51
r 0.355333 2 3 cbr 500 ------- 0 1.0 4.0 46 46
+ 0.355333 3 4 cbr 500 ------- 0 1.0 4.0 46 46
- 0.355333 3 4 cbr 500 ------- 0 1.0 4.0 46 46
r 0.357333 3 4 cbr 500 ------- 0 1.0 4.0 44 44
r 0.359 1 2 cbr 500 ------- 0 1.0 4.0 49 49
+ 0.359 2 3 cbr 500 ------- 0 1.0 4.0 49 49
- 0.359 2 3 cbr 500 ------- 0 1.0 4.0 49 49
+ 0.36 1 2 cbr 500 ------- 0 1.0 4.0 52 52
- 0.36 1 2 cbr 500 ------- 0 1.0 4.0 52 52
r 0.360333 2 3 cbr 500 ------- 0 1.0 4.0 47 47
+ 0.360333 3 4 cbr 500 ------- 0 1.0 4.0 47 47
- 0.360333 3 4 cbr 500 ------- 0 1.0 4.0 47 47
r 0.362333 3 4 cbr 500 ------- 0 1.0 4.0 45 45
r 0.364 1 2 cbr 500 ------- 0 1.0 4.0 50 50
+ 0.364 2 3 cbr 500 ------- 0 1.0 4.0 50 50
- 0.364 2 3 cbr 500 ------- 0 1.0 4.0 50 50
+ 0.365 1 2 cbr 500 ------- 0 1.0 4.0 53 53
- 0.365 1 2 cbr 500 ------- 0 1.0 4.0 53 53
r 0.365333 2 3 cbr 500 ------- 0 1.0 4.0 48 48
+ 0.365333 3 4 cbr 500 ------- 0 1.0 4.0 48 48
- 0.365333 3 4 cbr 500 ------- 0 1.0 4.0 48 48
r 0.367333 3 4 cbr 500 ------- 0 1.0 4.0 46 46
r 0.369 1 2 cbr 500 ------- 0 1.0 4.0 51 51
+ 0.369 2 3 cbr 500 ------- 0 1.0 4.0 51 51
- 0.369 2 3 cbr 500 ------- 0 1.0 4.0 51 51
+ 0.37 1 2 cbr 500 ------- 0 1.0 4.0 54 54
- 0.37 1 2 cbr 500 ------- 0 1.0 4.0 54 54
r 0.370333 2 3 cbr 500 ------- 0 1.0 4.0 49 49
+ 0.370333 3 4 cbr 500 ------- 0 1.0 4.0 49 49
- 0.370333 3 4 cbr 500 ------- 0 1.0 4.0 49 49
r 0.372333 3 4 cbr 500 ------- 0 1.0 4.0 47 47
r 0.374 1 2 cbr 500 ------- 0 1.0 4.0 52 52
+ 0.374 2 3 cbr 500 ------- 0 1.0 4.0 52 52
- 0.374 2 3 cbr 500 ------- 0 1.0 4.0 52 52
+ 0.375 1 2 cbr 500 ------- 0 1.0 4.0 55 55
- 0.375 1 2 cbr 500 ------- 0 1.0 4.0 55 55
r 0.375333 2 3 cbr 500 ------- 0 1.0 4.0 50 50
+ 0.375333 3 4 cbr 500 ------- 0 1.0 4.0 50 50
- 0.375333 3 4 cbr 500 ------- 0 1.0 4.0 50 50
r 0.377333 3 4 cbr 500 ------- 0 1.0 4.0 48 48
r 0.379 1 2 cbr 500 ------- 0 1.0 4.0 53 53
+ 0.379 2 3 cbr 500 ------- 0 1.0 4.0 53 53
- 0.379 2 3 cbr 500 ------- 0 1.0 4.0 53 53
+ 0.38 1 2 cbr 500 ------- 0 1.0 4.0 56 56
- 0.38 1 2 cbr 500 ------- 0 1.0 4.0 56 56
r 0.380333 2 3 cbr 500 ------- 0 1.0 4.0 51 51
+ 0.380333 3 4 cbr 500 ------- 0 1.0 4.0 51 51
- 0.380333 3 4 cbr 500 ------- 0 1.0 4.0 51 51
r 0.382333 3 4 cbr 500 ------- 0 1.0 4.0 49 49
r 0.384 1 2 cbr 500 ------- 0 1.0 4.0 54 54
+ 0.384 2 3 cbr 500 ------- 0 1.0 4.0 54 54
- 0.384 2 3 cbr 500 ------- 0 1.0 4.0 54 54
+ 0.385 1 2 cbr 500 ------- 0 1.0 4.0 57 57
- 0.385 1 2 cbr 500 ------- 0 1.0 4.0 57 57
r 0.385333 2 3 cbr 500 ------- 0 1.0 4.0 52 52
+ 0.385333 3 4 cbr 500 ------- 0 1.0 4.0 52 52
- 0.385333 3 4 cbr 500 ------- 0 1.0 4.0 52 52
r 0.387333 3 4 cbr 500 ------- 0 1.0 4.0 50 50
r 0.389 1 2 cbr 500 ------- 0 1.0 4.0 55 55
+ 0.389 2 3 cbr 500 ------- 0 1.0 4.0 55 55
- 0.389 2 3 cbr 500 ------- 0 1.0 4.0 55 55
+ 0.39 1 2 cbr 500 ------- 0 1.0 4.0 58 58
- 0.39 1 2 cbr 500 ------- 0 1.0 4.0 58 58
r 0.390333 2 3 cbr 500 ------- 0 1.0 4.0 53 53
+ 0.390333 3 4 cbr 500 ------- 0 1.0 4.0 53 53
- 0.390333 3 4 cbr 500 ------- 0 1.0 4.0 53 53
r 0.392333 3 4 cbr 500 ------- 0 1.0 4.0 51 51
r 0.394 1 2 cbr 500 ------- 0 1.0 4.0 56 56
+ 0.394 2 3 cbr 500 ------- 0 1.0 4.0 56 56
- 0.394 2 3 cbr 500 ------- 0 1.0 4.0 56 56
+ 0.395 1 2 cbr 500 ------- 0 1.0 4.0 59 59
- 0.395 1 2 cbr 500 ------- 0 1.0 4.0 59 59
r 0.395333 2 3 cbr 500 ------- 0 1.0 4.0 54 54
+ 0.395333 3 4 cbr 500 ------- 0 1.0 4.0 54 54
- 0.395333 3 4 cbr 500 ------- 0 1.0 4.0 54 54
r 0.397333 3 4 cbr 500 ------- 0 1.0 4.0 52 52
r 0.399 1 2 cbr 500 ------- 0 1.0 4.0 57 57
+ 0.399 2 3 cbr 500 ------- 0 1.0 4.0 57 57
- 0.399 2 3 cbr 500 ------- 0 1.0 4.0 57 57
+ 0.4 1 2 cbr 500 ------- 0 1.0 4.0 60 60
- 0.4 1 2 cbr 500 ------- 0 1.0 4.0 60 60
r 0.400333 2 3 cbr 500 ------- 0 1.0 4.0 55 55
+ 0.400333 3 4 cbr 500 ------- 0 1.0 4.0 55 55
- 0.400333 3 4 cbr 500 ------- 0 1.0 4.0 55 55
r 0.402333 3 4 cbr 500 ------- 0 1.0 4.0 53 53
r 0.404 1 2 cbr 500 ------- 0 1.0 4.0 58 58
+ 0.404 2 3 cbr 500 ------- 0 1.0 4.0 58 58
- 0.404 2 3 cbr 500 ------- 0 1.0 4.0 58 58
+ 0.405 1 2 cbr 500 ------- 0 1.0 4.0 61 61
- 0.405 1 2 cbr 500 ------- 0 1.0 4.0 61 61
r 0.405333 2 3 cbr 500 ------- 0 1.0 4.0 56 56
+ 0.405333 3 4 cbr 500 ------- 0 1.0 4.0 56 56
- 0.405333 3 4 cbr 500 ------- 0 1.0 4.0 56 56
r 0.407333 3 4 cbr 500 ------- 0 1.0 4.0 54 54
r 0.409 1 2 cbr 500 ------- 0 1.0 4.0 59 59
+ 0.409 2 3 cbr 500 ------- 0 1.0 4.0 59 59
- 0.409 2 3 cbr 500 ------- 0 1.0 4.0 59 59
+ 0.41 1 2 cbr 500 ------- 0 1.0 4.0 62 62
- 0.41 1 2 cbr 500 ------- 0 1.0 4.0 62 62
r 0.410333 2 3 cbr 500 ------- 0 1.0 4.0 57 57
+ 0.410333 3 4 cbr 500 ------- 0 1.0 4.0 57 57
- 0.410333 3 4 cbr 500 ------- 0 1.0 4.0 57 57
r 0.412333 3 4 cbr 500 ------- 0 1.0 4.0 55 55
r 0.414 1 2 cbr 500 ------- 0 1.0 4.0 60 60
+ 0.414 2 3 cbr 500 ------- 0 1.0 4.0 60 60
- 0.414 2 3 cbr 500 ------- 0 1.0 4.0 60 60
+ 0.415 1 2 cbr 500 ------- 0 1.0 4.0 63 63
- 0.415 1 2 cbr 500 ------- 0 1.0 4.0 63 63
r 0.415333 2 3 cbr 500 ------- 0 1.0 4.0 58 58
+ 0.415333 3 4 cbr 500 ------- 0 1.0 4.0 58 58
- 0.415333 3 4 cbr 500 ------- 0 1.0 4.0 58 58
r 0.417333 3 4 cbr 500 ------- 0 1.0 4.0 56 56
r 0.419 1 2 cbr 500 ------- 0 1.0 4.0 61 61
+ 0.419 2 3 cbr 500 ------- 0 1.0 4.0 61 61
- 0.419 2 3 cbr 500 ------- 0 1.0 4.0 61 61
+ 0.42 1 2 cbr 500 ------- 0 1.0 4.0 64 64
- 0.42 1 2 cbr 500 ------- 0 1.0 4.0 64 64
r 0.420333 2 3 cbr 500 ------- 0 1.0 4.0 59 59
+ 0.420333 3 4 cbr 500 ------- 0 1.0 4.0 59 59
- 0.420333 3 4 cbr 500 ------- 0 1.0 4.0 59 59
r 0.422333 3 4 cbr 500 ------- 0 1.0 4.0 57 57
r 0.424 1 2 cbr 500 ------- 0 1.0 4.0 62 62
+ 0.424 2 3 cbr 500 ------- 0 1.0 4.0 62 62
- 0.424 2 3 cbr 500 ------- 0 1.0 4.0 62 62
+ 0.425 1 2 cbr 500 ------- 0 1.0 4.0 65 65
- 0.425 1 2 cbr 500 ------- 0 1.0 4.0 65 65
r 0.425333 2 3 cbr 500 ------- 0 1.0 4.0 60 60
+ 0.425333 3 4 cbr 500 ------- 0 1.0 4.0 60 60
- 0.425333 3 4 cbr 500 ------- 0 1.0 4.0 60 60
r 0.427333 3 4 cbr 500 ------- 0 1.0 4.0 58 58
r 0.429 1 2 cbr 500 ------- 0 1.0 4.0 63 63
+ 0.429 2 3 cbr 500 ------- 0 1.0 4.0 63 63
- 0.429 2 3 cbr 500 ------- 0 1.0 4.0 63 63
+ 0.43 1 2 cbr 500 ------- 0 1.0 4.0 66 66
- 0.43 1 2 cbr 500 ------- 0 1.0 4.0 66 66
r 0.430333 2 3 cbr 500 ------- 0 1.0 4.0 61 61
+ 0.430333 3 4 cbr 500 ------- 0 1.0 4.0 61 61
- 0.430333 3 4 cbr 500 ------- 0 1.0 4.0 61 61
r 0.432333 3 4 cbr 500 ------- 0 1.0 4.0 59 59
r 0.434 1 2 cbr 500 ------- 0 1.0 4.0 64 64
+ 0.434 2 3 cbr 500 ------- 0 1.0 4.0 64 64
- 0.434 2 3 cbr 500 ------- 0 1.0 4.0 64 64
+ 0.435 1 2 cbr 500 ------- 0 1.0 4.0 67 67
- 0.435 1 2 cbr 500 ------- 0 1.0 4.0 67 67
r 0.435333 2 3 cbr 500 ------- 0 1.0 4.0 62 62
+ 0.435333 3 4 cbr 500 ------- 0 1.0 4.0 62 62
- 0.435333 3 4 cbr 500 ------- 0 1.0 4.0 62 62
r 0.437333 3 4 cbr 500 ------- 0 1.0 4.0 60 60
r 0.439 1 2 cbr 500 ------- 0 1.0 4.0 65 65
+ 0.439 2 3 cbr 500 ------- 0 1.0 4.0 65 65
- 0.439 2 3 cbr 500 ------- 0 1.0 4.0 65 65
+ 0.44 1 2 cbr 500 ------- 0 1.0 4.0 68 68
- 0.44 1 2 cbr 500 ------- 0 1.0 4.0 68 68
r 0.440333 2 3 cbr 500 ------- 0 1.0 4.0 63 63
+ 0.440333 3 4 cbr 500 ------- 0 1.0 4.0 63 63
- 0.440333 3 4 cbr 500 ------- 0 1.0 4.0 63 63
r 0.442333 3 4 cbr 500 ------- 0 1.0 4.0 61 61
r 0.444 1 2 cbr 500 ------- 0 1.0 4.0 66 66
+ 0.444 2 3 cbr 500 ------- 0 1.0 4.0 66 66
- 0.444 2 3 cbr 500 ------- 0 1.0 4.0 66 66
+ 0.445 1 2 cbr 500 ------- 0 1.0 4.0 69 69
- 0.445 1 2 cbr 500 ------- 0 1.0 4.0 69 69
r 0.445333 2 3 cbr 500 ------- 0 1.0 4.0 64 64
+ 0.445333 3 4 cbr 500 ------- 0 1.0 4.0 64 64
- 0.445333 3 4 cbr 500 ------- 0 1.0 4.0 64 64
r 0.447333 3 4 cbr 500 ------- 0 1.0 4.0 62 62
r 0.449 1 2 cbr 500 ------- 0 1.0 4.0 67 67
+ 0.449 2 3 cbr 500 ------- 0 1.0 4.0 67 67
- 0.449 2 3 cbr 500 ------- 0 1.0 4.0 67 67
+ 0.45 1 2 cbr 500 ------- 0 1.0 4.0 70 70
- 0.45 1 2 cbr 500 ------- 0 1.0 4.0 70 70
r 0.450333 2 3 cbr 500 ------- 0 1.0 4.0 65 65
+ 0.450333 3 4 cbr 500 ------- 0 1.0 4.0 65 65
- 0.450333 3 4 cbr 500 ------- 0 1.0 4.0 65 65
r 0.452333 3 4 cbr 500 ------- 0 1.0 4.0 63 63
r 0.454 1 2 cbr 500 ------- 0 1.0 4.0 68 68
+ 0.454 2 3 cbr 500 ------- 0 1.0 4.0 68 68
- 0.454 2 3 cbr 500 ------- 0 1.0 4.0 68 68
+ 0.455 1 2 cbr 500 ------- 0 1.0 4.0 71 71
- 0.455 1 2 cbr 500 ------- 0 1.0 4.0 71 71
r 0.455333 2 3 cbr 500 ------- 0 1.0 4.0 66 66
+ 0.455333 3 4 cbr 500 ------- 0 1.0 4.0 66 66
- 0.455333 3 4 cbr 500 ------- 0 1.0 4.0 66 66
r 0.457333 3 4 cbr 500 ------- 0 1.0 4.0 64 64
r 0.459 1 2 cbr 500 ------- 0 1.0 4.0 69 69
+ 0.459 2 3 cbr 500 ------- 0 1.0 4.0 69 69
- 0.459 2 3 cbr 500 ------- 0 1.0 4.0 69 69
+ 0.46 1 2 cbr 500 ------- 0 1.0 4.0 72 72
- 0.46 1 2 cbr 500 ------- 0 1.0 4.0 72 72
r 0.460333 2 3 cbr 500 ------- 0 1.0 4.0 67 67
+ 0.460333 3 4 cbr 500 ------- 0 1.0 4.0 67 67
- 0.460333 3 4 cbr 500 ------- 0 1.0 4.0 67 67
r 0.462333 3 4 cbr 500 ------- 0 1.0 4.0 65 65
r 0.464 1 2 cbr 500 ------- 0 1.0 4.0 70 70
+ 0.464 2 3 cbr 500 ------- 0 1.0 4.0 70 70
- 0.464 2 3 cbr 500 ------- 0 1.0 4.0 70 70
+ 0.465 1 2 cbr 500 ------- 0 1.0 4.0 73 73
- 0.465 1 2 cbr 500 ------- 0 1.0 4.0 73 73
r 0.465333 2 3 cbr 500 ------- 0 1.0 4.0 68 68
+ 0.465333 3 4 cbr 500 ------- 0 1.0 4.0 68 68
- 0.465333 3 4 cbr 500 ------- 0 1.0 4.0 68 68
r 0.467333 3 4 cbr 500 ------- 0 1.0 4.0 66 66
r 0.469 1 2 cbr 500 ------- 0 1.0 4.0 71 71
+ 0.469 2 3 cbr 500 ------- 0 1.0 4.0 71 71
- 0.469 2 3 cbr 500 ------- 0 1.0 4.0 71 71
+ 0.47 1 2 cbr 500 ------- 0 1.0 4.0 74 74
- 0.47 1 2 cbr 500 ------- 0 1.0 4.0 74 74
r 0.470333 2 3 cbr 500 ------- 0 1.0 4.0 69 69
+ 0.470333 3 4 cbr 500 ------- 0 1.0 4.0 69 69
- 0.470333 3 4 cbr 500 ------- 0 1.0 4.0 69 69
r 0.472333 3 4 cbr 500 ------- 0 1.0 4.0 67 67
r 0.474 1 2 cbr 500 ------- 0 1.0 4.0 72 72
+ 0.474 2 3 cbr 500 ------- 0 1.0 4.0 72 72
- 0.474 2 3 cbr 500 ------- 0 1.0 4.0 72 72
+ 0.475 1 2 cbr 500 ------- 0 1.0 4.0 75 75
- 0.475 1 2 cbr 500 ------- 0 1.0 4.0 75 75
r 0.475333 2 3 cbr 500 ------- 0 1.0 4.0 70 70
+ 0.475333 3 4 cbr 500 ------- 0 1.0 4.0 70 70
- 0.475333 3 4 cbr 500 ------- 0 1.0 4.0 70 70
r 0.477333 3 4 cbr 500 ------- 0 1.0 4.0 68 68
r 0.479 1 2 cbr 500 ------- 0 1.0 4.0 73 73
+ 0.479 2 3 cbr 500 ------- 0 1.0 4.0 73 73
- 0.479 2 3 cbr 500 ------- 0 1.0 4.0 73 73
+ 0.48 1 2 cbr 500 ------- 0 1.0 4.0 76 76
- 0.48 1 2 cbr 500 ------- 0 1.0 4.0 76 76
r 0.480333 2 3 cbr 500 ------- 0 1.0 4.0 71 71
+ 0.480333 3 4 cbr 500 ------- 0 1.0 4.0 71 71
- 0.480333 3 4 cbr 500 ------- 0 1.0 4.0 71 71
r 0.482333 3 4 cbr 500 ------- 0 1.0 4.0 69 69
r 0.484 1 2 cbr 500 ------- 0 1.0 4.0 74 74
+ 0.484 2 3 cbr 500 ------- 0 1.0 4.0 74 74
- 0.484 2 3 cbr 500 ------- 0 1.0 4.0 74 74
+ 0.485 1 2 cbr 500 ------- 0 1.0 4.0 77 77
- 0.485 1 2 cbr 500 ------- 0 1.0 4.0 77 77
r 0.485333 2 3 cbr 500 ------- 0 1.0 4.0 72 72