V -t * -v 1.0a5 -a 0
A -t * -n 1 -p 0 -o 0x7fffffff -c 30 -a 1
A -t * -h 1 -m 1073741823 -s 0
c -t * -i 2 -n Black
n -t * -a 4 -s 4 -S UP -v circle -c black -i black
n -t * -a 0 -s 0 -S UP -v circle -c black -i black
n -t * -a 5 -s 5 -S UP -v circle -c black -i black
n -t * -a 1 -s 1 -S UP -v circle -c black -i black
n -t * -a 6 -s 6 -S UP -v circle -c black -i black
n -t * -a 2 -s 2 -S UP -v circle -c black -i black
n -t * -a 7 -s 7 -S UP -v circle -c black -i black
n -t * -a 3 -s 3 -S UP -v circle -c black -i black
l -t * -s 0 -d 2 -S UP -r 1000000 -D 0.01 -c black -o right-down
l -t * -s 6 -d 2 -S UP -r 1000000 -D 0.01 -c black -o right
l -t * -s 1 -d 2 -S UP -r 1000000 -D 0.01 -c black -o right-up
l -t * -s 2 -d 3 -S UP -r 3000000 -D 0.01 -c black -o right
l -t * -s 3 -d 5 -S UP -r 2000000 -D 0.01 -c black -o right-up
l -t * -s 3 -d 7 -S UP -r 2000000 -D 0.01 -c black -o right
l -t * -s 3 -d 4 -S UP -r 2000000 -D 0.01 -c black -o right-down
+ -t 0.1 -s 1 -d 2 -p cbr -e 500 -c 0 -i 0 -a 0 -x {1.0 4.0 0 ------- null}
- -t 0.1 -s 1 -d 2 -p cbr -e 500 -c 0 -i 0 -a 0 -x {1.0 4.0 0 ------- null}
h -t 0.1 -s 1 -d 2 -p cbr -e 500 -c 0 -i 0 -a 0 -x {1.0 4.0 -1 ------- null}
+ -t 0.105 -s 1 -d 2 -p cbr -e 500 -c 0 -i 1 -a 0 -x {1.0 4.0 1 ------- null}
- -t 0.105 -s 1 -d 2 -p cbr -e 500 -c 0 -i 1 -a 0 -x {1.0 4.0 1 ------- null}
h -t 0.105 -s 1 -d 2 -p cbr -e 500 -c 0 -i 1 -a 0 -x {1.0 4.0 -1 ------- null}
+ -t 0.11 -s 1 -d 2 -p cbr -e 500 -c 0 -i 2 -a 0 -x {1.0 4.0 2 ------- null}
- -t 0.11 -s 1 -d 2 -p cbr -e 500 -c 0 -i 2 -a 0 -x {1.0 4.0 2 ------- null}
h -t 0.11 -s 1 -d 2 -p cbr -e 500 -c 0 -i 2 -a 0 -x {1.0 4.0 -1 ------- null}
r -t 0.114 -s 1 -d 2 -p cbr -e 500 -c 0 -i 0 -a 0 -x {1.0 4.0 0 ------- null}
+ -t 0.114 -s 2 -d 3 -p cbr -e 500 -c 0 -i 0 -a 0 -x {1.0 4.0 0 ------- null}
- -t 0.114 -s 2 -d 3 -p cbr -e 500 -c 0 -i 0 -a 0 -x {1.0 4.0 0 ------- null}
h -t 0.114 -s 2 -d 3 -p cbr -e 500 -c 0 -i 0 -a 0 -x {1.0 4.0 -1 ------- null}
+ -t 0.115 -s 1 -d 2 -p cbr -e 500 -c 0 -i 3 -a 0 -x {1.0 4.0 3 ------- null}
- -t 0.115 -s 1 -d 2 -p cbr -e 500 -c 0 -i 3 -a 0 -x {1.0 4.0 3 ------- null}
h -t 0.115 -s 1 -d 2 -p cbr -e 500 -c 0 -i 3 -a 0 -x {1.0 4.0 -1 ------- null}
r -t 0.119 -s 1 -d 2 -p cbr -e 500 -c 0 -i 1 -a 0 -x {1.0 4.0 1 ------- null}
+ -t 0.119 -s 2 -d 3 -p cbr -e 500 -c 0 -i 1 -a 0 -x {1.0 4.0 1 ------- null}
- -t 0.119 -s 2 -d 3 -p cbr -e 500 -c 0 -i 1 -a 0 -x {1.0 4.0 1 ------- null}
h -t 0.119 -s 2 -d 3 -p cbr -e 500 -c 0 -i 1 -a 0 -x {1.0 4.0 -1 ------- null}
+ -t 0.12 -s 1 -d 2 -p cbr -e 500 -c 0 -i 4 -a 0 -x {1.0 4.0 4 ------- null}
- -t 0.12 -s 1 -d 2 -p cbr -e 500 -c 0 -i 4 -a 0 -x {1.0 4.0 4 ------- null}
h -t 0.12 -s 1 -d 2 -p cbr -e 500 -c 0 -i 4 -a 0 -x {1.0 4.0 -1 ------- null}
r -t 0.124 -s 1 -d 2 -p cbr -e 500 -c 0 -i 2 -a 0 -x {1.0 4.0 2 ------- null}
+ -t 0.124 -s 2 -d 3 -p cbr -e 500 -c 0 -i 2 -a 0 -x {1.0 4.0 2 ------- null}
- -t 0.124 -s 2 -d 3 -p cbr -e 500 -c 0 -i 2 -a 0 -x {1.0 4.0 2 ------- null}
h -t 0.124 -s 2 -d 3 -p cbr -e 500 -c 0 -i 2 -a 0 -x {1.0 4.0 -1 ------- null}
+ -t 0.125 -s 1 -d 2 -p cbr -e 500 -c 0 -i 5 -a 0 -x {1.0 4.0 5 ------- null}
- -t 0.125 -s 1 -d 2 -p cbr -e 500 -c 0 -i 5 -a 0 -x {1.0 4.0 5 ------- null}
h -t 0.125 -s 1 -d 2 -p cbr -e 500 -c 0 -i 5 -a 0 -x {1.0 4.0 -1 ------- null}
r -t 0.125333333333333 -s 2 -d 3 -p cbr -e 500 -c 0 -i 0 -a 0 -x {1.0 4.0 0 ------- null}
+ -t 0.125333333333333 -s 3 -d 4 -p cbr -e 500 -c 0 -i 0 -a 0 -x {1.0 4.0 0 ------- null}
- -t 0.125333333333333 -s 3 -d 4 -p cbr -e 500 -c 0 -i 0 -a 0 -x {1.0 4.0 0 ------- null}
h -t 0.125333333333333 -s 3 -d 4 -p cbr -e 500 -c 0 -i 0 -a 0 -x {1.0 4.0 -1 ------- null}
r -t 0.129 -s 1 -d 2 -p cbr -e 500 -c 0 -i 3 -a 0 -x {1.0 4.0 3 ------- null}
+ -t 0.129 -s 2 -d 3 -p cbr -e 500 -c 0 -i 3 -a 0 -x {1.0 4.0 3 ------- null}
- -t 0.129 -s 2 -d 3 -p cbr -e 500 -c 0 -i 3 -a 0 -x {1.0 4.0 3 ------- null}
h -t 0.129 -s 2 -d 3 -p cbr -e 500 -c 0 -i 3 -a 0 -x {1.0 4.0 -1 ------- null}
+ -t 0.13 -s 1 -d 2 -p cbr -e 500 -c 0 -i 6 -a 0 -x {1.0 4.0 6 ------- null}
- -t 0.13 -s 1 -d 2 -p cbr -e 500 -c 0 -i 6 -a 0 -x {1.0 4.0 6 ------- null}
h -t 0.13 -s 1 -d 2 -p cbr -e 500 -c 0 -i 6 -a 0 -x {1.0 4.0 -1 ------- null}
r -t 0.130333333333333 -s 2 -d 3 -p cbr -e 500 -c 0 -i 1 -a 0 -x {1.0 4.0 1 ------- null}
+ -t 0.130333333333333 -s 3 -d 4 -p cbr -e 500 -c 0 -i 1 -a 0 -x {1.0 4.0 1 ------- null}
- -t 0.130333333333333 -s 3 -d 4 -p cbr -e 500 -c 0 -i 1 -a 0 -x {1.0 4.0 1 ------- null}
h -t 0.130333333333333 -s 3 -d 4 -p cbr -e 500 -c 0 -i 1 -a 0 -x {1.0 4.0 -1 ------- null}
r -t 0.134 -s 1 -d 2 -p cbr -e 500 -c 0 -i 4 -a 0 -x {1.0 4.0 4 ------- null}
+ -t 0.134 -s 2 -d 3 -p cbr -e 500 -c 0 -i 4 -a 0 -x {1.0 4.0 4 ------- null}
- -t 0.134 -s 2 -d 3 -p cbr -e 500 -c 0 -i 4 -a 0 -x {1.0 4.0 4 ------- null}
h -t 0.134 -s 2 -d 3 -p cbr -e 500 -c 0 -i 4 -a 0 -x {1.0 4.0 -1 ------- null}
+ -t 0.135 -s 1 -d 2 -p cbr -e 500 -c 0 -i 7 -a 0 -x {1.0 4.0 7 ------- null}
- -t 0.135 -s 1 -d 2 -p cbr -e 500 -c 0 -i 7 -a 0 -x {1.0 4.0 7 ------- null}
h -t 0.135 -s 1 -d 2 -p cbr -e 500 -c 0 -i 7 -a 0 -x {1.0 4.0 -1 ------- null}
r -t 0.135333333333333 -s 2 -d 3 -p cbr -e 500 -c 0 -i 2 -a 0 -x {1.0 4.0 2 ------- null}
+ -t 0.135333333333333 -s 3 -d 4 -p cbr -e 500 -c 0 -i 2 -a 0 -x {1.0 4.0 2 ------- null}
- -t 0.135333333333333 -s 3 -d 4 -p cbr -e 500 -c 0 -i 2 -a 0 -x {1.0 4.0 2 ------- null}
h -t 0.135333333333333 -s 3 -d 4 -p cbr -e 500 -c 0 -i 2 -a 0 -x {1.0 4.0 -1 ------- null}
r -t 0.137333333333333 -s 3 -d 4 -p cbr -e 500 -c 0 -i 0 -a 0 -x {1.0 4.0 0 ------- null}
r -t 0.139 -s 1 -d 2 -p cbr -e 500 -c 0 -i 5 -a 0 -x {1.0 4.0 5 ------- null}
+ -t 0.139 -s 2 -d 3 -p cbr -e 500 -c 0 -i 5 -a 0 -x {1.0 4.0 5 ------- null}
- -t 0.139 -s 2 -d 3 -p cbr -e 500 -c 0 -i 5 -a 0 -x {1.0 4.0 5 ------- null}
h -t 0.139 -s 2 -d 3 -p cbr -e 500 -c 0 -i 5 -a 0 -x {1.0 4.0 -1 ------- null}
+ -t 0.14 -s 1 -d 2 -p cbr -e 500 -c 0 -i 8 -a 0 -x {1.0 4.0 8 ------- null}
- -t 0.14 -s 1 -d 2 -p cbr -e 500 -c 0 -i 8 -a 0 -x {1.0 4.0 8 ------- null}
h -t 0.14 -s 1 -d 2 -p cbr -e 500 -c 0 -i 8 -a 0 -x {1.0 4.0 -1 ------- null}
r -t 0.140333333333333 -s 2 -d 3 -p cbr -e 500 -c 0 -i 3 -a 0 -x {1.0 4.0 3 ------- null}
+ -t 0.140333333333333 -s 3 -d 4 -p cbr -e 500 -c 0 -i 3 -a 0 -x {1.0 4.0 3 ------- null}
- -t 0.140333333333333 -s 3 -d 4 -p cbr -e 500 -c 0 -i 3 -a 0 -x {1.0 4.0 3 ------- null}
h -t 0.140333333333333 -s 3 -d 4 -p cbr -e 500 -c 0 -i 3 -a 0 -x {1.0 4.0 -1 ------- null}
r -t 0.142333333333333 -s 3 -d 4 -p cbr -e 500 -c 0 -i 1 -a 0 -x {1.0 4.0 1 ------- null}
r -t 0.144 -s 1 -d 2 -p cbr -e 500 -c 0 -i 6 -a 0 -x {1.0 4.0 6 ------- null}
+ -t 0.144 -s 2 -d 3 -p cbr -e 500 -c 0 -i 6 -a 0 -x {1.0 4.0 6 ------- null}
- -t 0.144 -s 2 -d 3 -p cbr -e 500 -c 0 -i 6 -a 0 -x {1.0 4.0 6 ------- null}
h -t 0.144 -s 2 -d 3 -p cbr -e 500 -c 0 -i 6 -a 0 -x {1.0 4.0 -1 ------- null}
+ -t 0.145 -s 1 -d 2 -p cbr -e 500 -c 0 -i 9 -a 0 -x {1.0 4.0 9 ------- null}
- -t 0.145 -s 1 -d 2 -p cbr -e 500 -c 0 -i 9 -a 0 -x {1.0 4.0 9 ------- null}
h -t 0.145 -s 1 -d 2 -p cbr -e 500 -c 0 -i 9 -a 0 -x {1.0 4.0 -1 ------- null}
r -t 0.145333333333333 -s 2 -d 3 -p cbr -e 500 -c 0 -i 4 -a 0 -x {1.0 4.0 4 ------- null}
+ -t 0.145333333333333 -s 3 -d 4 -p cbr -e 500 -c 0 -i 4 -a 0 -x {1.0 4.0 4 ------- null}
- -t 0.145333333333333 -s 3 -d 4 -p cbr -e 500 -c 0 -i 4 -a 0 -x {1.0 4.0 4 ------- null}
h -t 0.145333333333333 -s 3 -d 4 -p cbr -e 500 -c 0 -i 4 -a 0 -x {1.0 4.0 -1 ------- null}
r -t 0.147333333333333 -s 3 -d 4 -p cbr -e 500 -c 0 -i 2 -a 0 -x {1.0 4.0 2 ------- null}
r -t 0.149 -s 1 -d 2 -p cbr -e 500 -c 0 -i 7 -a 0 -x {1.0 4.0 7 ------- null}
+ -t 0.149 -s 2 -d 3 -p cbr -e 500 -c 0 -i 7 -a 0 -x {1.0 4.0 7 ------- null}
- -t 0.149 -s 2 -d 3 -p cbr -e 500 -c 0 -i 7 -a 0 -x {1.0 4.0 7 ------- null}
h -t 0.149 -s 2 -d 3 -p cbr -e 500 -c 0 -i 7 -a 0 -x {1.0 4.0 -1 ------- null}
+ -t 0.15 -s 1 -d 2 -p cbr -e 500 -c 0 -i 10 -a 0 -x {1.0 4.0 10 ------- null}
- -t 0.15 -s 1 -d 2 -p cbr -e 500 -c 0 -i 10 -a 0 -x {1.0 4.0 10 ------- null}
h -t 0.15 -s 1 -d 2 -p cbr -e 500 -c 0 -i 10 -a 0 -x {1.0 4.0 -1 ------- null}
r -t 0.150333333333333 -s 2 -d 3 -p cbr -e 500 -c 0 -i 5 -a 0 -x {1.0 4.0 5 ------- null}
+ -t 0.150333333333333 -s 3 -d 4 -p cbr -e 500 -c 0 -i 5 -a 0 -x {1.0 4.0 5 ------- null}
- -t 0.150333333333333 -s 3 -d 4 -p cbr -e 500 -c 0 -i 5 -a 0 -x {1.0 4.0 5 ------- null}
h -t 0.150333333333333 -s 3 -d 4 -p cbr -e 500 -c 0 -i 5 -a 0 -x {1.0 4.0 -1 ------- null}
r -t 0.152333333333333 -s 3 -d 4 -p cbr -e 500 -c 0 -i 3 -a 0 -x {1.0 4.0 3 ------- null}
r -t 0.154 -s 1 -d 2 -p cbr -e 500 -c 0 -i 8 -a 0 -x {1.0 4.0 8 ------- null}
+ -t 0.154 -s 2 -d 3 -p cbr -e 500 -c 0 -i 8 -a 0 -x {1.0 4.0 8 ------- null}
- -t 0.154 -s 2 -d 3 -p cbr -e 500 -c 0 -i 8 -a 0 -x {1.0 4.0 8 ------- null}
h -t 0.154 -s 2 -d 3 -p cbr -e 500 -c 0 -i 8 -a 0 -x {1.0 4.0 -1 ------- null}
+ -t 0.155 -s 1 -d 2 -p cbr -e 500 -c 0 -i 11 -a 0 -x {1.0 4.0 11 ------- null}
- -t 0.155 -s 1 -d 2 -p cbr -e 500 -c 0 -i 11 -a 0 -x {1.0 4.0 11 ------- null}
h -t 0.155 -s 1 -d 2 -p cbr -e 500 -c 0 -i 11 -a 0 -x {1.0 4.0 -1 ------- null}
r -t 0.155333333333333 -s 2 -d 3 -p cbr -e 500 -c 0 -i 6 -a 0 -x {1.0 4.0 6 ------- null}
+ -t 0.155333333333333 -s 3 -d 4 -p cbr -e 500 -c 0 -i 6 -a 0 -x {1.0 4.0 6 ------- null}
- -t 0.155333333333333 -s 3 -d 4 -p cbr -e 500 -c 0 -i 6 -a 0 -x {1.0 4.0 6 ------- null}
h -t 0.155333333333333 -s 3 -d 4 -p cbr -e 500 -c 0 -i 6 -a 0 -x {1.0 4.0 -1 ------- null}
r -t 0.157333333333333 -s 3 -d 4 -p cbr -e 500 -c 0 -i 4 -a 0 -x {1.0 4.0 4 ------- null}
r -t 0.159 -s 1 -d 2 -p cbr -e 500 -c 0 -i 9 -a 0 -x {1.0 4.0 9 ------- null}
+ -t 0.159 -s 2 -d 3 -p cbr -e 500 -c 0 -i 9 -a 0 -x {1.0 4.0 9 ------- null}
- -t 0.159 -s 2 -d 3 -p cbr -e 500 -c 0 -i 9 -a 0 -x {1.0 4.0 9 ------- null}
h -t 0.159 -s 2 -d 3 -p cbr -e 500 -c 0 -i 9 -a 0 -x {1.0 4.0 -1 ------- null}
+ -t 0.16 -s 1 -d 2 -p cbr -e 500 -c 0 -i 12 -a 0 -x {1.0 4.0 12 ------- null}
- -t 0.16 -s 1 -d 2 -p cbr -e 500 -c 0 -i 12 -a 0 -x {1.0 4.0 12 ------- null}
h -t 0.16 -s 1 -d 2 -p cbr -e 500 -c 0 -i 12 -a 0 -x {1.0 4.0 -1 ------- null}
r -t 0.160333333333333 -s 2 -d 3 -p cbr -e 500 -c 0 -i 7 -a 0 -x {1.0 4.0 7 ------- null}
+ -t 0.160333333333333 -s 3 -d 4 -p cbr -e 500 -c 0 -i 7 -a 0 -x {1.0 4.0 7 ------- null}
- -t 0.160333333333333 -s 3 -d 4 -p cbr -e 500 -c 0 -i 7 -a 0 -x {1.0 4.0 7 ------- null}
h -t 0.160333333333333 -s 3 -d 4 -p cbr -e 500 -c 0 -i 7 -a 0 -x {1.0 4.0 -1 ------- null}
r -t 0.162333333333333 -s 3 -d 4 -p cbr -e 500 -c 0 -i 5 -a 0 -x {1.0 4.0 5 ------- null}
r -t 0.164 -s 1 -d 2 -p cbr -e 500 -c 0 -i 10 -a 0 -x {1.0 4.0 10 ------- null}
+ -t 0.164 -s 2 -d 3 -p cbr -e 500 -c 0 -i 10 -a 0 -x {1.0 4.0 10 ------- null}
- -t 0.164 -s 2 -d 3 -p cbr -e 500 -c 0 -i 10 -a 0 -x {1.0 4.0 10 ------- null}
h -t 0.164 -s 2 -d 3 -p cbr -e 500 -c 0 -i 10 -a 0 -x {1.0 4.0 -1 ------- null}
+ -t 0.165 -s 1 -d 2 -p cbr -e 500 -c 0 -i 13 -a 0 -x {1.0 4.0 13 ------- null}
- -t 0.165 -s 1 -d 2 -p cbr -e 500 -c 0 -i 13 -a 0 -x {1.0 4.0 13 ------- null}
h -t 0.165 -s 1 -d 2 -p cbr -e 500 -c 0 -i 13 -a 0 -x {1.0 4.0 -1 ------- null}
r -t 0.165333333333333 -s 2 -d 3 -p cbr -e 500 -c 0 -i 8 -a 0 -x {1.0 4.0 8 ------- null}
+ -t 0.165333333333333 -s 3 -d 4 -p cbr -e 500 -c 0 -i 8 -a 0 -x {1.0 4.0 8 ------- null}
- -t 0.165333333333333 -s 3 -d 4 -p cbr -e 500 -c 0 -i 8 -a 0 -x {1.0 4.0 8 ------- null}
h -t 0.165333333333333 -s 3 -d 4 -p cbr -e 500 -c 0 -i 8 -a 0 -x {1.0 4.0 -1 ------- null}
r -t 0.167333333333333 -s 3 -d 4 -p cbr -e 500 -c 0 -i 6 -a 0 -x {1.0 4.0 6 ------- null}
r -t 0.169 -s 1 -d 2 -p cbr -e 500 -c 0 -i 11 -a 0 -x {1.0 4.0 11 ------- null}
+ -t 0.169 -s 2 -d 3 -p cbr -e 500 -c 0 -i 11 -a 0 -x {1.0 4.0 11 ------- null}
- -t 0.169 -s 2 -d 3 -p cbr -e 500 -c 0 -i 11 -a 0 -x {1.0 4.0 11 ------- null}
h -t 0.169 -s 2 -d 3 -p cbr -e 500 -c 0 -i 11 -a 0 -x {1.0 4.0 -1 ------- null}
+ -t 0.17 -s 1 -d 2 -p cbr -e 500 -c 0 -i 14 -a 0 -x {1.0 4.0 14 ------- null}
- -t 0.17 -s 1 -d 2 -p cbr -e 500 -c 0 -i 14 -a 0 -x {1.0 4.0 14 ------- null}
h -t 0.17 -s 1 -d 2 -p cbr -e 500 -c 0 -i 14 -a 0 -x {1.0 4.0 -1 ------- null}
r -t 0.170333333333333 -s 2 -d 3 -p cbr -e 500 -c 0 -i 9 -a 0 -x {1.0 4.0 9 ------- null}
+ -t 0.170333333333333 -s 3 -d 4 -p cbr -e 500 -c 0 -i 9 -a 0 -x {1.0 4.0 9 ------- null}
- -t 0.170333333333333 -s 3 -d 4 -p cbr -e 500 -c 0 -i 9 -a 0 -x {1.0 4.0 9 ------- null}
h -t 0.170333333333333 -s 3 -d 4 -p cbr -e 500 -c 0 -i 9 -a 0 -x {1.0 4.0 -1 ------- null}
r -t 0.172333333333333 -s 3 -d 4 -p cbr -e 500 -c 0 -i 7 -a 0 -x {1.0 4.0 7 ------- null}
r -t 0.174 -s 1 -d 2 -p cbr -e 500 -c 0 -i 12 -a 0 -x {1.0 4.0 12 ------- null}
+ -t 0.174 -s 2 -d 3 -p cbr -e 500 -c 0 -i 12 -a 0 -x {1.0 4.0 12 ------- null}
- -t 0.174 -s 2 -d 3 -p cbr -e 500 -c 0 -i 12 -a 0 -x {1.0 4.0 12 ------- null}
h -t 0.174 -s 2 -d 3 -p cbr -e 500 -c 0 -i 12 -a 0 -x {1.0 4.0 -1 ------- null}
+ -t 0.175 -s 1 -d 2 -p cbr -e 500 -c 0 -i 15 -a 0 -x {1.0 4.0 15 ------- null}
- -t 0.175 -s 1 -d 2 -p cbr -e 500 -c 0 -i 15 -a 0 -x {1.0 4.0 15 ------- null}
h -t 0.175 -s 1 -d 2 -p cbr -e 500 -c 0 -i 15 -a 0 -x {1.0 4.0 -1 ------- null}
r -t 0.175333333333333 -s 2 -d 3 -p cbr -e 500 -c 0 -i 10 -a 0 -x {1.0 4.0 10 ------- null}
+ -t 0.175333333333333 -s 3 -d 4 -p cbr -e 500 -c 0 -i 10 -a 0 -x {1.0 4.0 10 ------- null}
- -t 0.175333333333333 -s 3 -d 4 -p cbr -e 500 -c 0 -i 10 -a 0 -x {1.0 4.0 10 ------- null}
h -t 0.175333333333333 -s 3 -d 4 -p cbr -e 500 -c 0 -i 10 -a 0 -x {1.0 4.0 -1 ------- null}
r -t 0.177333333333333 -s 3 -d 4 -p cbr -e 500 -c 0 -i 8 -a 0 -x {1.0 4.0 8 ------- null}
r -t 0.179 -s 1 -d 2 -p cbr -e 500 -c 0 -i 13 -a 0 -x {1.0 4.0 13 ------- null}
+ -t 0.179 -s 2 -d 3 -p cbr -e 500 -c 0 -i 13 -a 0 -x {1.0 4.0 13 ------- null}
- -t 0.179 -s 2 -d 3 -p cbr -e 500 -c 0 -i 13 -a 0 -x {1.0 4.0 13 ------- null}
h -t 0.179 -s 2 -d 3 -p cbr -e 500 -c 0 -i 13 -a 0 -x {1.0 4.0 -1 ------- null}
+ -t 0.18 -s 1 -d 2 -p cbr -e 500 -c 0 -i 16 -a 0 -x {1.0 4.0 16 ------- null}
- -t 0.18 -s 1 -d 2 -p cbr -e 500 -c 0 -i 16 -a 0 -x {1.0 4.0 16 ------- null}
h -t 0.18 -s 1 -d 2 -p cbr -e 500 -c 0 -i 16 -a 0 -x {1.0 4.0 -1 ------- null}
r -t 0.180333333333333 -s 2 -d 3 -p cbr -e 500 -c 0 -i 11 -a 0 -x {1.0 4.0 11 ------- null}
+ -t 0.180333333333333 -s 3 -d 4 -p cbr -e 500 -c 0 -i 11 -a 0 -x {1.0 4.0 11 ------- null}
- -t 0.180333333333333 -s 3 -d 4 -p cbr -e 500 -c 0 -i 11 -a 0 -x {1.0 4.0 11 ------- null}
h -t 0.180333333333333 -s 3 -d 4 -p cbr -e 500 -c 0 -i 11 -a 0 -x {1.0 4.0 -1 ------- null}
r -t 0.182333333333333 -s 3 -d 4 -p cbr -e 500 -c 0 -i 9 -a 0 -x {1.0 4.0 9 ------- null}
r -t 0.184 -s 1 -d 2 -p cbr -e 500 -c 0 -i 14 -a 0 -x {1.0 4.0 14 ------- null}
+ -t 0.184 -s 2 -d 3 -p cbr -e 500 -c 0 -i 14 -a 0 -x {1.0 4.0 14 ------- null}
- -t 0.184 -s 2 -d 3 -p cbr -e 500 -c 0 -i 14 -a 0 -x {1.0 4.0 14 ------- null}
h -t 0.184 -s 2 -d 3 -p cbr -e 500 -c 0 -i 14 -a 0 -x {1.0 4.0 -1 ------- null}
+ -t 0.185 -s 1 -d 2 -p cbr -e 500 -c 0 -i 17 -a 0 -x {1.0 4.0 17 ------- null}
- -t 0.185 -s 1 -d 2 -p cbr -e 500 -c 0 -i 17 -a 0 -x {1.0 4.0 17 ------- null}
h -t 0.185 -s 1 -d 2 -p cbr -e 500 -c 0 -i 17 -a 0 -x {1.0 4.0 -1 ------- null}
r -t 0.185333333333333 -s 2 -d 3 -p cbr -e 500 -c 0 -i 12 -a 0 -x {1.0 4.0 12 ------- null}
+ -t 0.185333333333333 -s 3 -d 4 -p cbr -e 500 -c 0 -i 12 -a 0 -x {1.0 4.0 12 ------- null}
- -t 0.185333333333333 -s 3 -d 4 -p cbr -e 500 -c 0 -i 12 -a 0 -x {1.0 4.0 12 ------- null}
h -t 0.185333333333333 -s 3 -d 4 -p cbr -e 500 -c 0 -i 12 -a 0 -x {1.0 4.0 -1 ------- null}
r -t 0.187333333333333 -s 3 -d 4 -p cbr -e 500 -c 0 -i 10 -a 0 -x {1.0 4.0 10 ------- null}
r -t 0.189 -s 1 -d 2 -p cbr -e 500 -c 0 -i 15 -a 0 -x {1.0 4.0 15 ------- null}
+ -t 0.189 -s 2 -d 3 -p cbr -e 500 -c 0 -i 15 -a 0 -x {1.0 4.0 15 ------- null}
- -t 0.189 -s 2 -d 3 -p cbr -e 500 -c 0 -i 15 -a 0 -x {1.0 4.0 15 ------- null}
h -t 0.189 -s 2 -d 3 -p cbr -e 500 -c 0 -i 15 -a 0 -x {1.0 4.0 -1 ------- null}
+ -t 0.19 -s 1 -d 2 -p cbr -e 500 -c 0 -i 18 -a 0 -x {1.0 4.0 18 ------- null}
- -t 0.19 -s 1 -d 2 -p cbr -e 500 -c 0 -i 18 -a 0 -x {1.0 4.0 18 ------- null}
h -t 0.19 -s 1 -d 2 -p cbr -e 500 -c 0 -i 18 -a 0 -x {1.0 4.0 -1 ------- null}
r -t 0.190333333333333 -s 2 -d 3 -p cbr -e 500 -c 0 -i 13 -a 0 -x {1.0 4.0 13 ------- null}
+ -t 0.190333333333333 -s 3 -d 4 -p cbr -e 500 -c 0 -i 13 -a 0 -x {1.0 4.0 13 ------- null}
- -t 0.190333333333333 -s 3 -d 4 -p cbr -e 500 -c 0 -i 13 -a 0 -x {1.0 4.0 13 ------- null}
h -t 0.190333333333333 -s 3 -d 4 -p cbr -e 500 -c 0 -i 13 -a 0 -x {1.0 4.0 -1 ------- null}
r -t 0.192333333333333 -s 3 -d 4 -p cbr -e 500 -c 0 -i 11 -a 0 -x {1.0 4.0 11 ------- null}
r -t 0.194 -s 1 -d 2 -p cbr -e 500 -c 0 -i 16 -a 0 -x {1.0 4.0 16 ------- null}
+ -t 0.194 -s 2 -d 3 -p cbr -e 500 -c 0 -i 16 -a 0 -x {1.0 4.0 16 ------- null}
- -t 0.194 -s 2 -d 3 -p cbr -e 500 -c 0 -i 16 -a 0 -x {1.0 4.0 16 ------- null}
h -t 0.194 -s 2 -d 3 -p cbr -e 500 -c 0 -i 16 -a 0 -x {1.0 4.0 -1 ------- null}
+ -t 0.195 -s 1 -d 2 -p cbr -e 500 -c 0 -i 19 -a 0 -x {1.0 4.0 19 ------- null}
- -t 0.195 -s 1 -d 2 -p cbr -e 500 -c 0 -i 19 -a 0 -x {1.0 4.0 19 ------- null}
h -t 0.195 -s 1 -d 2 -p cbr -e 500 -c 0 -i 19 -a 0 -x {1.0 4.0 -1 ------- null}
r -t 0.195333333333333 -s 2 -d 3 -p cbr -e 500 -c 0 -i 14 -a 0 -x {1.0 4.0 14 ------- null}
+ -t 0.195333333333333 -s 3 -d 4 -p cbr -e 500 -c 0 -i 14 -a 0 -x {1.0 4.0 14 ------- null}
- -t 0.195333333333333 -s 3 -d 4 -p cbr -e 500 -c 0 -i 14 -a 0 -x {1.0 4.0 14 ------- null}
h -t 0.195333333333333 -s 3 -d 4 -p cbr -e 500 -c 0 -i 14 -a 0 -x {1.0 4.0 -1 ------- null}
r -t 0.197333333333333 -s 3 -d 4 -p cbr -e 500 -c 0 -i 12 -a 0 -x {1.0 4.0 12 ------- null}
r -t 0.199 -s 1 -d 2 -p cbr -e 500 -c 0 -i 17 -a 0 -x {1.0 4.0 17 ------- null}
+ -t 0.199 -s 2 -d 3 -p cbr -e 500 -c 0 -i 17 -a 0 -x {1.0 4.0 17 ------- null}
- -t 0.199 -s 2 -d 3 -p cbr -e 500 -c 0 -i 17 -a 0 -x {1.0 4.0 17 ------- null}
h -t 0.199 -s 2 -d 3 -p cbr -e 500 -c 0 -i 17 -a 0 -x {1.0 4.0 -1 ------- null}
+ -t 0.2 -s 1 -d 2 -p cbr -e 500 -c 0 -i 20 -a 0 -x {1.0 4.0 20 ------- null}
- -t 0.2 -s 1 -d 2 -p cbr -e 500 -c 0 -i 20 -a 0 -x {1.0 4.0 20 ------- null}
h -t 0.2 -s 1 -d 2 -p cbr -e 500 -c 0 -i 20 -a 0 -x {1.0 4.0 -1 ------- null}
r -t 0.200333333333333 -s 2 -d 3 -p cbr -e 500 -c 0 -i 15 -a 0 -x {1.0 4.0 15 ------- null}
+ -t 0.200333333333333 -s 3 -d 4 -p cbr -e 500 -c 0 -i 15 -a 0 -x {1.0 4.0 15 ------- null}
- -t 0.200333333333333 -s 3 -d 4 -p cbr -e 500 -c 0 -i 15 -a 0 -x {1.0 4.0 15 ------- null}
h -t 0.200333333333333 -s 3 -d 4 -p cbr -e 500 -c 0 -i 15 -a 0 -x {1.0 4.0 -1 ------- null}
r -t 0.202333333333333 -s 3 -d 4 -p cbr -e 500 -c 0 -i 13 -a 0 -x {1.0 4.0 13 ------- null}
r -t 0.204 -s 1 -d 2 -p cbr -e 500 -c 0 -i 18 -a 0 -x {1.0 4.0 18 ------- null}
+ -t 0.204 -s 2 -d 3 -p cbr -e 500 -c 0 -i 18 -a 0 -x {1.0 4.0 18 ------- null}
- -t 0.204 -s 2 -d 3 -p cbr -e 500 -c 0 -i 18 -a 0 -x {1.0 4.0 18 ------- null}
h -t 0.204 -s 2 -d 3 -p cbr -e 500 -c 0 -i 18 -a 0 -x {1.0 4.0 -1 ------- null}
+ -t 0.205 -s 1 -d 2 -p cbr -e 500 -c 0 -i 21 -a 0 -x {1.0 4.0 21 ------- null}
- -t 0.205 -s 1 -d 2 -p cbr -e 500 -c 0 -i 21 -a 0 -x {1.0 4.0 21 ------- null}
h -t 0.205 -s 1 -d 2 -p cbr -e 500 -c 0 -i 21 -a 0 -x {1.0 4.0 -1 ------- null}
r -t 0.205333333333333 -s 2 -d 3 -p cbr -e 500 -c 0 -i 16 -a 0 -x {1.0 4.0 16 ------- null}
+ -t 0.205333333333333 -s 3 -d 4 -p cbr -e 500 -c 0 -i 16 -a 0 -x {1.0 4.0 16 ------- null}
- -t 0.205333333333333 -s 3 -d 4 -p cbr -e 500 -c 0 -i 16 -a 0 -x {1.0 4.0 16 ------- null}
h -t 0.205333333333333 -s 3 -d 4 -p cbr -e 500 -c 0 -i 16 -a 0 -x {1.0 4.0 -1 ------- null}
r -t 0.207333333333333 -s 3 -d 4 -p cbr -e 500 -c 0 -i 14 -a 0 -x {1.0 4.0 14 ------- null}
r -t 0.209 -s 1 -d 2 -p cbr -e 500 -c 0 -i 19 -a 0 -x {1.0 4.0 19 ------- null}
+ -t 0.209 -s 2 -d 3 -p cbr -e 500 -c 0 -i 19 -a 0 -x {1.0 4.0 19 ------- null}
- -t 0.209 -s 2 -d 3 -p cbr -e 500 -c 0 -i 19 -a 0 -x {1.0 4.0 19 ------- null}
h -t 0.209 -s 2 -d 3 -p cbr -e 500 -c 0 -i 19 -a 0 -x {1.0 4.0 -1 ------- null}
+ -t 0.21 -s 1 -d 2 -p cbr -e 500 -c 0 -i 22 -a 0 -x {1.0 4.0 22 ------- null}
- -t 0.21 -s 1 -d 2 -p cbr -e 500 -c 0 -i 22 -a 0 -x {1.0 4.0 22 ------- null}
h -t 0.21 -s 1 -d 2 -p cbr -e 500 -c 0 -i 22 -a 0 -x {1.0 4.0 -1 ------- null}
r -t 0.210333333333333 -s 2 -d 3 -p cbr -e 500 -c 0 -i 17 -a 0 -x {1.0 4.0 17 ------- null}
+ -t 0.210333333333333 -s 3 -d 4 -p cbr -e 500 -c 0 -i 17 -a 0 -x {1.0 4.0 17 ------- null}
- -t 0.210333333333333 -s 3 -d 4 -p cbr -e 500 -c 0 -i 17 -a 0 -x {1.0 4.0 17 ------- null}
h -t 0.210333333333333 -s 3 -d 4 -p cbr -e 500 -c 0 -i 17 -a 0 -x {1.0 4.0 -1 ------- null}
r -t 0.212333333333333 -s 3 -d 4 -p cbr -e 500 -c 0 -i 15 -a 0 -x {1.0 4.0 15 ------- null}
r -t 0.214 -s 1 -d 2 -p cbr -e 500 -c 0 -i 20 -a 0 -x {1.0 4.0 20 ------- null}
+ -t 0.214 -s 2 -d 3 -p cbr -e 500 -c 0 -i 20 -a 0 -x {1.0 4.0 20 ------- null}
- -t 0.214 -s 2 -d 3 -p cbr -e 500 -c 0 -i 20 -a 0 -x {1.0 4.0 20 ------- null}
h -t 0.214 -s 2 -d 3 -p cbr -e 500 -c 0 -i 20 -a 0 -x {1.0 4.0 -1 ------- null}
+ -t 0.215 -s 1 -d 2 -p cbr -e 500 -c 0 -i 23 -a 0 -x {1.0 4.0 23 ------- null}
- -t 0.215 -s 1 -d 2 -p cbr -e 500 -c 0 -i 23 -a 0 -x {1.0 4.0 23 ------- null}
h -t 0.215 -s 1 -d 2 -p cbr -e 500 -c 0 -i 23 -a 0 -x {1.0 4.0 -1 ------- null}
r -t 0.215333333333333 -s 2 -d 3 -p cbr -e 500 -c 0 -i 18 -a 0 -x {1.0 4.0 18 ------- null}
+ -t 0.215333333333333 -s 3 -d 4 -p cbr -e 500 -c 0 -i 18 -a 0 -x {1.0 4.0 18 ------- null}
- -t 0.215333333333333 -s 3 -d 4 -p cbr -e 500 -c 0 -i 18 -a 0 -x {1.0 4.0 18 ------- null}
h -t 0.215333333333333 -s 3 -d 4 -p cbr -e 500 -c 0 -i 18 -a 0 -x {1.0 4.0 -1 ------- null}
r -t 0.217333333333333 -s 3 -d 4 -p cbr -e 500 -c 0 -i 16 -a 0 -x {1.0 4.0 16 ------- null}
r -t 0.219 -s 1 -d 2 -p cbr -e 500 -c 0 -i 21 -a 0 -x {1.0 4.0 21 ------- null}
+ -t 0.219 -s 2 -d 3 -p cbr -e 500 -c 0 -i 21 -a 0 -x {1.0 4.0 21 ------- null}
- -t 0.219 -s 2 -d 3 -p cbr -e 500 -c 0 -i 21 -a 0 -x {1.0 4.0 21 ------- null}
h -t 0.219 -s 2 -d 3 -p cbr -e 500 -c 0 -i 21 -a 0 -x {1.0 4.0 -1 ------- null}
+ -t 0.22 -s 1 -d 2 -p cbr -e 500 -c 0 -i 24 -a 0 -x {1.0 4.0 24 ------- null}
- -t 0.22 -s 1 -d 2 -p cbr -e 500 -c 0 -i 24 -a 0 -x {1.0 4.0 24 ------- null}
h -t 0.22 -s 1 -d 2 -p cbr -e 500 -c 0 -i 24 -a 0 -x {1.0 4.0 -1 ------- null}
r -t 0.220333333333333 -s 2 -d 3 -p cbr -e 500 -c 0 -i 19 -a 0 -x {1.0 4.0 19 ------- null}
+ -t 0.220333333333333 -s 3 -d 4 -p cbr -e 500 -c 0 -i 19 -a 0 -x {1.0 4.0 19 ------- null}
- -t 0.220333333333333 -s 3 -d 4 -p cbr -e 500 -c 0 -i 19 -a 0 -x {1.0 4.0 19 ------- null}
h -t 0.220333333333333 -s 3 -d 4 -p cbr -e 500 -c 0 -i 19 -a 0 -x {1.0 4.0 -1 ------- null}
r -t 0.222333333333333 -s 3 -d 4 -p cbr -e 500 -c 0 -i 17 -a 0 -x {1.0 4.0 17 ------- null}
r -t 0.224 -s 1 -d 2 -p cbr -e 500 -c 0 -i 22 -a 0 -x {1.0 4.0 22 ------- null}
+ -t 0.224 -s 2 -d 3 -p cbr -e 500 -c 0 -i 22 -a 0 -x {1.0 4.0 22 ------- null}
- -t 0.224 -s 2 -d 3 -p cbr -e 500 -c 0 -i 22 -a 0 -x {1.0 4.0 22 ------- null}
h -t 0.224 -s 2 -d 3 -p cbr -e 500 -c 0 -i 22 -a 0 -x {1.0 4.0 -1 ------- null}
+ -t 0.225 -s 1 -d 2 -p cbr -e 500 -c 0 -i 25 -a 0 -x {1.0 4.0 25 ------- null}
- -t 0.225 -s 1 -d 2 -p cbr -e 500 -c 0 -i 25 -a 0 -x {1.0 4.0 25 ------- null}
h -t 0.225 -s 1 -d 2 -p cbr -e 500 -c 0 -i 25 -a 0 -x {1.0 4.0 -1 ------- null}
r -t 0.225333333333333 -s 2 -d 3 -p cbr -e 500 -c 0 -i 20 -a 0 -x {1.0 4.0 20 ------- null}
+ -t 0.225333333333333 -s 3 -d 4 -p cbr -e 500 -c 0 -i 20 -a 0 -x {1.0 4.0 20 ------- null}
- -t 0.225333333333333 -s 3 -d 4 -p cbr -e 500 -c 0 -i 20 -a 0 -x {1.0 4.0 20 ------- null}
h -t 0.225333333333333 -s 3 -d 4 -p cbr -e 500 -c 0 -i 20 -a 0 -x {1.0 4.0 -1 ------- null}
r -t 0.227333333333333 -s 3 -d 4 -p cbr -e 500 -c 0 -i 18 -a 0 -x {1.0 4.0 18 ------- null}
r -t 0.229 -s 1 -d 2 -p cbr -e 500 -c 0 -i 23 -a 0 -x {1.0 4.0 23 ------- null}
+ -t 0.229 -s 2 -d 3 -p cbr -e 500 -c 0 -i 23 -a 0 -x {1.0 4.0 23 ------- null}
- -t 0.229 -s 2 -d 3 -p cbr -e 500 -c 0 -i 23 -a 0 -x {1.0 4.0 23 ------- null}
h -t 0.229 -s 2 -d 3 -p cbr -e 500 -c 0 -i 23 -a 0 -x {1.0 4.0 -1 ------- null}
+ -t 0.23 -s 1 -d 2 -p cbr -e 500 -c 0 -i 26 -a 0 -x {1.0 4.0 26 ------- null}
- -t 0.23 -s 1 -d 2 -p cbr -e 500 -c 0 -i 26 -a 0 -x {1.0 4.0 26 ------- null}
h -t 0.23 -s 1 -d 2 -p cbr -e 500 -c 0 -i 26 -a 0 -x {1.0 4.0 -1 ------- null}
r -t 0.230333333333333 -s 2 -d 3 -p cbr -e 500 -c 0 -i 21 -a 0 -x {1.0 4.0 21 ------- null}
+ -t 0.230333333333333 -s 3 -d 4 -p cbr -e 500 -c 0 -i 21 -a 0 -x {1.0 4.0 21 ------- null}
- -t 0.230333333333333 -s 3 -d 4 -p cbr -e 500 -c 0 -i 21 -a 0 -x {1.0 4.0 21 ------- null}
h -t 0.230333333333333 -s 3 -d 4 -p cbr -e 500 -c 0 -i 21 -a 0 -x {1.0 4.0 -1 ------- null}
r -t 0.232333333333333 -s 3 -d 4 -p cbr -e 500 -c 0 -i 19 -a 0 -x {1.0 4.0 19 ------- null}
r -t 0.234 -s 1 -d 2 -p cbr -e 500 -c 0 -i 24 -a 0 -x {1.0 4.0 24 ------- null}
+ -t 0.234 -s 2 -d 3 -p cbr -e 500 -c 0 -i 24 -a 0 -x {1.0 4.0 24 ------- null}
- -t 0.234 -s 2 -d 3 -p cbr -e 500 -c 0 -i 24 -a 0 -x {1.0 4.0 24 ------- null}
h -t 0.234 -s 2 -d 3 -p cbr -e 500 -c 0 -i 24 -a 0 -x {1.0 4.0 -1 ------- null}
+ -t 0.235 -s 1 -d 2 -p cbr -e 500 -c 0 -i 27 -a 0 -x {1.0 4.0 27 ------- null}
- -t 0.235 -s 1 -d 2 -p cbr -e 500 -c 0 -i 27 -a 0 -x {1.0 4.0 27 ------- null}
h -t 0.235 -s 1 -d 2 -p cbr -e 500 -c 0 -i 27 -a 0 -x {1.0 4.0 -1 ------- null}
r -t 0.235333333333333 -s 2 -d 3 -p cbr -e 500 -c 0 -i 22 -a 0 -x {1.0 4.0 22 ------- null}
+ -t 0.235333333333333 -s 3 -d 4 -p cbr -e 500 -c 0 -i 22 -a 0 -x {1.0 4.0 22 ------- null}
- -t 0.235333333333333 -s 3 -d 4 -p cbr -e 500 -c 0 -i 22 -a 0 -x {1.0 4.0 22 ------- null}
h -t 0.235333333333333 -s 3 -d 4 -p cbr -e 500 -c 0 -i 22 -a 0 -x {1.0 4.0 -1 ------- null}
r -t 0.237333333333333 -s 3 -d 4 -p cbr -e 500 -c 0 -i 20 -a 0 -x {1.0 4.0 20 ------- null}
r -t 0.239 -s 1 -d 2 -p cbr -e 500 -c 0 -i 25 -a 0 -x {1.0 4.0 25 ------- null}
+ -t 0.239 -s 2 -d 3 -p cbr -e 500 -c 0 -i 25 -a 0 -x {1.0 4.0 25 ------- null}
- -t 0.239 -s 2 -d 3 -p cbr -e 500 -c 0 -i 25 -a 0 -x {1.0 4.0 25 ------- null}
h -t 0.239 -s 2 -d 3 -p cbr -e 500 -c 0 -i 25 -a 0 -x {1.0 4.0 -1 ------- null}
+ -t 0.24 -s 1 -d 2 -p cbr -e 500 -c 0 -i 28 -a 0 -x {1.0 4.0 28 ------- null}
- -t 0.24 -s 1 -d 2 -p cbr -e 500 -c 0 -i 28 -a 0 -x {1.0 4.0 28 ------- null}
h -t 0.24 -s 1 -d 2 -p cbr -e 500 -c 0 -i 28 -a 0 -x {1.0 4.0 -1 ------- null}
r -t 0.240333333333333 -s 2 -d 3 -p cbr -e 500 -c 0 -i 23 -a 0 -x {1.0 4.0 23 ------- null}
+ -t 0.240333333333333 -s 3 -d 4 -p cbr -e 500 -c 0 -i 23 -a 0 -x {1.0 4.0 23 ------- null}
- -t 0.240333333333333 -s 3 -d 4 -p cbr -e 500 -c 0 -i 23 -a 0 -x {1.0 4.0 23 ------- null}
h -t 0.240333333333333 -s 3 -d 4 -p cbr -e 500 -c 0 -i 23 -a 0 -x {1.0 4.0 -1 ------- null}
r -t 0.242333333333333 -s 3 -d 4 -p cbr -e 500 -c 0 -i 21 -a 0 -x {1.0 4.0 21 ------- null}
r -t 0.244 -s 1 -d 2 -p cbr -e 500 -c 0 -i 26 -a 0 -x {1.0 4.0 26 ------- null}
+ -t 0.244 -s 2 -d 3 -p cbr -e 500 -c 0 -i 26 -a 0 -x {1.0 4.0 26 ------- null}
- -t 0.244 -s 2 -d 3 -p cbr -e 500 -c 0 -i 26 -a 0 -x {1.0 4.0 26 ------- null}
h -t 0.244 -s 2 -d 3 -p cbr -e 500 -c 0 -i 26 -a 0 -x {1.0 4.0 -1 ------- null}
+ -t 0.245 -s 1 -d 2 -p cbr -e 500 -c 0 -i 29 -a 0 -x {1.0 4.0 29 ------- null}
- -t 0.245 -s 1 -d 2 -p cbr -e 500 -c 0 -i 29 -a 0 -x {1.0 4.0 29 ------- null}
h -t 0.245 -s 1 -d 2 -p cbr -e 500 -c 0 -i 29 -a 0 -x {1.0 4.0 -1 ------- null}
r -t 0.245333333333333 -s 2 -d 3 -p cbr -e 500 -c 0 -i 24 -a 0 -x {1.0 4.0 24 ------- null}
+ -t 0.245333333333333 -s 3 -d 4 -p cbr -e 500 -c 0 -i 24 -a 0 -x {1.0 4.0 24 ------- null}
- -t 0.245333333333333 -s 3 -d 4 -p cbr -e 500 -c 0 -i 24 -a 0 -x {1.0 4.0 24 ------- null}
h -t 0.245333333333333 -s 3 -d 4 -p cbr -e 500 -c 0 -i 24 -a 0 -x {1.0 4.0 -1 ------- null}
r -t 0.247333333333333 -s 3 -d 4 -p cbr -e 500 -c 0 -i 22 -a 0 -x {1.0 4.0 22 ------- null}
r -t 0.249 -s 1 -d 2 -p cbr -e 500 -c 0 -i 27 -a 0 -x {1.0 4.0 27 ------- null}
+ -t 0.249 -s 2 -d 3 -p cbr -e 500 -c 0 -i 27 -a 0 -x {1.0 4.0 27 ------- null}
- -t 0.249 -s 2 -d 3 -p cbr -e 500 -c 0 -i 27 -a 0 -x {1.0 4.0 27 ------- null}
h -t 0.249 -s 2 -d 3 -p cbr -e 500 -c 0 -i 27 -a 0 -x {1.0 4.0 -1 ------- null}
+ -t 0.25 -s 1 -d 2 -p cbr -e 500 -c 0 -i 30 -a 0 -x {1.0 4.0 30 ------- null}
- -t 0.25 -s 1 -d 2 -p cbr -e 500 -c 0 -i 30 -a 0 -x {1.0 4.0 30 ------- null}
h -t 0.25 -s 1 -d 2 -p cbr -e 500 -c 0 -i 30 -a 0 -x {1.0 4.0 -1 ------- null}
r -t 0.250333333333333 -s 2 -d 3 -p cbr -e 500 -c 0 -i 25 -a 0 -x {1.0 4.0 25 ------- null}
+ -t 0.250333333333333 -s 3 -d 4 -p cbr -e 500 -c 0 -i 25 -a 0 -x {1.0 4.0 25 ------- null}
- -t 0.250333333333333 -s 3 -d 4 -p cbr -e 500 -c 0 -i 25 -a 0 -x {1.0 4.0 25 ------- null}
h -t 0.250333333333333 -s 3 -d 4 -p cbr -e 500 -c 0 -i 25 -a 0 -x {1.0 4.0 -1 ------- null}
r -t 0.252333333333333 -s 3 -d 4 -p cbr -e 500 -c 0 -i 23 -a 0 -x {1.0 4.0 23 ------- null}
r -t 0.254 -s 1 -d 2 -p cbr -e 500 -c 0 -i 28 -a 0 -x {1.0 4.0 28 ------- null}
+ -t 0.254 -s 2 -d 3 -p cbr -e 500 -c 0 -i 28 -a 0 -x {1.0 4.0 28 ------- null}
- -t 0.254 -s 2 -d 3 -p cbr -e 500 -c 0 -i 28 -a 0 -x {1.0 4.0 28 ------- null}
h -t 0.254 -s 2 -d 3 -p cbr -e 500 -c 0 -i 28 -a 0 -x {1.0 4.0 -1 ------- null}
+ -t 0.255 -s 1 -d 2 -p cbr -e 500 -c 0 -i 31 -a 0 -x {1.0 4.0 31 ------- null}
- -t 0.255 -s 1 -d 2 -p cbr -e 500 -c 0 -i 31 -a 0 -x {1.0 4.0 31 ------- null}
h -t 0.255 -s 1 -d 2 -p cbr -e 500 -c 0 -i 31 -a 0 -x {1.0 4.0 -1 ------- null}
r -t 0.255333333333333 -s 2 -d 3 -p cbr -e 500 -c 0 -i 26 -a 0 -x {1.0 4.0 26 ------- null}
+ -t 0.255333333333333 -s 3 -d 4 -p cbr -e 500 -c 0 -i 26 -a 0 -x {1.0 4.0 26 ------- null}
- -t 0.255333333333333 -s 3 -d 4 -p cbr -e 500 -c 0 -i 26 -a 0 -x {1.0 4.0 26 ------- null}
h -t 0.255333333333333 -s 3 -d 4 -p cbr -e 500 -c 0 -i 26 -a 0 -x {1.0 4.0 -1 ------- null}
r -t 0.257333333333333 -s 3 -d 4 -p cbr -e 500 -c 0 -i 24 -a 0 -x {1.0 4.0 24 ------- null}
r -t 0.259 -s 1 -d 2 -p cbr -e 500 -c 0 -i 29 -a 0 -x {1.0 4.0 29 ------- null}